LAMMPS data file. CGCMM style. atom_style full generated by VMD/TopoTools v1.7 on Wed Jun 28 19:42:47 -0400 2023
 153 atoms
 160 bonds
 282 angles
 400 dihedrals
 0 impropers
 79 atom types
 84 bond types
 153 angle types
 220 dihedral types
 0 improper types
 -11.00000 9.000000  xlo xhi
 -18.00000 21.00000  ylo yhi
 -21.00000 16.50000  zlo zhi

Pair Coeffs

1	0.07	3.55
2	0.07	3.55
3	0.07	3.55
4	0.07	3.55
5	0.07	3.55
6	0.07	3.55
7	0.07	3.55
8	0.07	3.55
9	0.066	3.5
10	0.066	3.5
11	0.066	3.5
12	0.07	3.55
13	0.066	3.5
14	0.07	3.55
15	0.07	3.55
16	0.07	3.55
17	0.066	3.5
18	0.07	3.55
19	0.07	3.55
20	0.07	3.55
21	0.07	3.55
22	0.07	3.55
23	0.066	3.5
24	0.07	3.55
25	0.066	3.5
26	0.07	3.55
27	0.066	3.5
28	0.066	3.5
29	0.066	3.5
30	0.066	3.5
31	0.07	3.55
32	0.03	2.42
33	0.03	2.5
34	0.03	2.5
35	0.03	2.42
36	0.03	2.42
37	0.03	2.42
38	0.03	2.42
39	0.03	2.5
40	0.03	2.5
41	0.03	2.5
42	0.03	2.5
43	0.03	2.42
44	0.03	2.5
45	0.03	2.5
46	0.03	2.5
47	0.03	2.5
48	0.03	2.5
49	0.03	2.42
50	0.03	2.42
51	0.03	2.42
52	0.03	2.5
53	0.03	2.5
54	0.03	2.5
55	0.03	2.42
56	0.03	2.42
57	0.03	2.42
58	0.03	2.42
59	0.03	2.5
60	0.03	2.5
61	0.03	2.5
62	0.03	2.42
63	0.03	2.5
64	0.03	2.5
65	0.03	2.5
66	0.03	2.5
67	0.03	2.5
68	0.03	2.5
69	0.03	2.5
70	0.03	2.5
71	0.03	2.5
72	0.17	3.25
73	0.17	3.25
74	0.17	3.25
75	0.17	3.25
76	0.17	3.25
77	0.17	3.25
78	0.21	2.96
79	0.21	2.96

# Pair Coeffs
#
# 1  C1
# 2  C10
# 3  C11
# 4  C12
# 5  C13
# 6  C14
# 7  C15
# 8  C16
# 9  C17
# 10  C18
# 11  C19
# 12  C2
# 13  C20
# 14  C21
# 15  C22
# 16  C23
# 17  C24
# 18  C25
# 19  C26
# 20  C27
# 21  C28
# 22  C29
# 23  C3
# 24  C30
# 25  C31
# 26  C4
# 27  C5
# 28  C6
# 29  C7
# 30  C8
# 31  C9
# 32  H1
# 33  H10
# 34  H11
# 35  H12
# 36  H13
# 37  H14
# 38  H15
# 39  H16
# 40  H17
# 41  H18
# 42  H19
# 43  H2
# 44  H20
# 45  H21
# 46  H22
# 47  H23
# 48  H24
# 49  H25
# 50  H26
# 51  H27
# 52  H28
# 53  H29
# 54  H3
# 55  H30
# 56  H31
# 57  H32
# 58  H33
# 59  H34
# 60  H35
# 61  H36
# 62  H37
# 63  H38
# 64  H39
# 65  H4
# 66  H40
# 67  H5
# 68  H6
# 69  H7
# 70  H8
# 71  H9
# 72  N1
# 73  N2
# 74  N3
# 75  N4
# 76  N5
# 77  N6
# 78  O1
# 79  O2

Bond Coeffs

1		367		1.08
2		477		1.343
3		477		1.343
4		469		1.4
5		469		1.4
6		400		1.49
7		469		1.4
8		367		1.08
9		469		1.4
10		367		1.08
11		469		1.4
12		367		1.08
13		469		1.4
14		367		1.08
15		400		1.49
16		490		1.335
17		570		1.229
18		340		1.09
19		340		1.09
20		340		1.09
21		337		1.449
22		268		1.529
23		340		1.09
24		340		1.09
25		337		1.449
26		268		1.529
27		340		1.09
28		340		1.09
29		512		1.375
30		367		1.08
31		427		1.381
32		340		1.09
33		340		1.09
34		337		1.475
35		512		1.375
36		367		1.08
37		427		1.381
38		367		1.08
39		477		1.343
40		477		1.343
41		367		1.08
42		427		1.381
43		317		1.51
44		317		1.51
45		340		1.09
46		340		1.09
47		337		1.475
48		337		1.475
49		469		1.4
50		469		1.4
51		469		1.4
52		367		1.08
53		469		1.4
54		367		1.08
55		469		1.4
56		367		1.08
57		469		1.4
58		367		1.08
59		268		1.529
60		340		1.09
61		340		1.09
62		337		1.475
63		317		1.51
64		340		1.09
65		340		1.09
66		340		1.09
67		367		1.08
68		427		1.381
69		340		1.09
70		340		1.09
71		340		1.09
72		337		1.475
73		268		1.529
74		340		1.09
75		340		1.09
76		340		1.09
77		340		1.09
78		337		1.449
79		340		1.09
80		340		1.09
81		340		1.09
82		337		1.449
83		490		1.335
84		570		1.229

# Bond Coeffs
#
# 1  C1-H1
# 2  C1-N1
# 3  C1-N2
# 4  C10-C11
# 5  C10-C12
# 6  C10-C9
# 7  C11-C13
# 8  C11-H12
# 9  C12-C14
# 10  C12-H13
# 11  C13-C15
# 12  C13-H14
# 13  C14-C15
# 14  C14-H15
# 15  C15-C16
# 16  C16-N4
# 17  C16-O2
# 18  C17-H16
# 19  C17-H17
# 20  C17-H18
# 21  C17-N4
# 22  C18-C19
# 23  C18-H19
# 24  C18-H20
# 25  C18-N4
# 26  C19-C20
# 27  C19-H21
# 28  C19-H22
# 29  C2-C4
# 30  C2-H2
# 31  C2-N1
# 32  C20-H23
# 33  C20-H24
# 34  C20-N5
# 35  C21-C23
# 36  C21-H25
# 37  C21-N5
# 38  C22-H26
# 39  C22-N5
# 40  C22-N6
# 41  C23-H27
# 42  C23-N6
# 43  C24-C25
# 44  C24-C30
# 45  C24-H28
# 46  C24-H29
# 47  C24-N2
# 48  C24-N6
# 49  C25-C26
# 50  C25-C27
# 51  C26-C28
# 52  C26-H30
# 53  C27-C29
# 54  C27-H31
# 55  C28-C30
# 56  C28-H32
# 57  C29-C30
# 58  C29-H33
# 59  C3-C6
# 60  C3-H3
# 61  C3-H4
# 62  C3-N1
# 63  C30-C31
# 64  C31-H34
# 65  C31-H35
# 66  C31-H36
# 67  C4-H37
# 68  C4-N2
# 69  C5-H38
# 70  C5-H39
# 71  C5-H40
# 72  C5-N2
# 73  C6-C7
# 74  C6-H5
# 75  C6-H6
# 76  C7-H7
# 77  C7-H8
# 78  C7-N3
# 79  C8-H10
# 80  C8-H11
# 81  C8-H9
# 82  C8-N3
# 83  C9-N3
# 84  C9-O1

Angle Coeffs

1		70		109.8
2		63		112.4
3		63		112.4
4		70		109.8
5		63		112.4
6		63		120
7		35		120
8		63		120
9		35		120
10		70		115.5
11		80		120.4
12		63		120
13		85		120
14		63		120
15		35		120
16		85		120
17		63		120
18		35		120
19		35		120
20		63		120
21		85		120
22		35		120
23		85		120
24		35		120
25		35		120
26		70		115.5
27		80		120.4
28		50		121.9
29		50		121.9
30		50		118
31		58.35		112.7
32		37.5		110.7
33		37.5		110.7
34		37.5		110.7
35		37.5		110.7
36		80		109.7
37		37.5		110.7
38		37.5		110.7
39		51.65		110.58
40		35		130.7
41		70		120
42		63		112.4
43		37.5		110.7
44		37.5		110.7
45		63		112.4
46		63		112.4
47		35		130.7
48		70		120
49		70		109.8
50		70		109.8
51		63		112.4
52		35		130.7
53		70		120
54		63		112.4
55		70		120
56		70		120
57		70		120
58		70		120
59		63		112.4
60		35		109.5
61		35		109.5
62		80		111.2
63		63		120
64		35		120
65		63		120
66		35		120
67		63		120
68		63		120
69		35		120
70		63		120
71		35		120
72		35		120
73		63		120
74		70		120
75		35		120
76		70		120
77		58.35		112.7
78		37.5		110.7
79		37.5		110.7
80		70		120
81		35		109.5
82		80		111.2
83		35		120
84		35		120
85		35		109.5
86		35		109.5
87		35		109.5
88		35		130.7
89		70		120
90		63		112.4
91		37.5		110.7
92		37.5		110.7
93		51.65		110.58
94		37.5		110.7
95		37.5		110.7
96		80		109.7
97		37.5		110.7
98		37.5		110.7
99		50		118
100		50		121.9
101		50		121.9
102		35		120
103		35		120
104		33		107.8
105		33		107.8
106		35		109.5
107		33		107.8
108		35		109.5
109		33		107.8
110		33		107.8
111		35		109.5
112		33		107.8
113		35		109.5
114		35		109.5
115		33		107.8
116		35		109.5
117		35		121.6
118		35		109.5
119		33		107.8
120		33		107.8
121		35		109.5
122		35		109.5
123		35		121.6
124		35		120
125		35		120
126		35		121.6
127		33		107.8
128		35		109.5
129		35		109.5
130		35		109.5
131		35		109.5
132		33		107.8
133		35		109.5
134		33		107.8
135		33		107.8
136		33		107.8
137		35		121.6
138		33		107.8
139		33		107.8
140		35		109.5
141		33		107.8
142		35		109.5
143		35		109.5
144		35		109.5
145		33		107.8
146		33		107.8
147		35		109.5
148		35		109.5
149		35		109.5
150		70		120
151		80		122.9
152		80		122.9
153		70		120


# Angle Coeffs
#
# 1  C1-N1-C2
# 2  C1-N1-C3
# 3  C1-N2-C24
# 4  C1-N2-C4
# 5  C1-N2-C5
# 6  C10-C11-C13
# 7  C10-C11-H12
# 8  C10-C12-C14
# 9  C10-C12-H13
# 10  C10-C9-N3
# 11  C10-C9-O1
# 12  C11-C10-C12
# 13  C11-C10-C9
# 14  C11-C13-C15
# 15  C11-C13-H14
# 16  C12-C10-C9
# 17  C12-C14-C15
# 18  C12-C14-H15
# 19  C13-C11-H12
# 20  C13-C15-C14
# 21  C13-C15-C16
# 22  C14-C12-H13
# 23  C14-C15-C16
# 24  C15-C13-H14
# 25  C15-C14-H15
# 26  C15-C16-N4
# 27  C15-C16-O2
# 28  C16-N4-C17
# 29  C16-N4-C18
# 30  C17-N4-C18
# 31  C18-C19-C20
# 32  C18-C19-H21
# 33  C18-C19-H22
# 34  C19-C18-H19
# 35  C19-C18-H20
# 36  C19-C18-N4
# 37  C19-C20-H23
# 38  C19-C20-H24
# 39  C19-C20-N5
# 40  C2-C4-H37
# 41  C2-C4-N2
# 42  C2-N1-C3
# 43  C20-C19-H21
# 44  C20-C19-H22
# 45  C20-N5-C21
# 46  C20-N5-C22
# 47  C21-C23-H27
# 48  C21-C23-N6
# 49  C21-N5-C22
# 50  C22-N6-C23
# 51  C22-N6-C24
# 52  C23-C21-H25
# 53  C23-C21-N5
# 54  C23-N6-C24
# 55  C24-C25-C26
# 56  C24-C25-C27
# 57  C24-C30-C28
# 58  C24-C30-C29
# 59  C24-N2-C4
# 60  C25-C24-H28
# 61  C25-C24-H29
# 62  C25-C24-N6
# 63  C25-C26-C28
# 64  C25-C26-H30
# 65  C25-C27-C29
# 66  C25-C27-H31
# 67  C26-C25-C27
# 68  C26-C28-C30
# 69  C26-C28-H32
# 70  C27-C29-C30
# 71  C27-C29-H33
# 72  C28-C26-H30
# 73  C28-C30-C29
# 74  C28-C30-C31
# 75  C29-C27-H31
# 76  C29-C30-C31
# 77  C3-C6-C7
# 78  C3-C6-H5
# 79  C3-C6-H6
# 80  C30-C24-H28
# 81  C30-C24-H29
# 82  C30-C24-N2
# 83  C30-C28-H32
# 84  C30-C29-H33
# 85  C30-C31-H34
# 86  C30-C31-H35
# 87  C30-C31-H36
# 88  C4-C2-H2
# 89  C4-C2-N1
# 90  C4-N2-C5
# 91  C6-C3-H3
# 92  C6-C3-H4
# 93  C6-C3-N1
# 94  C6-C7-H7
# 95  C6-C7-H8
# 96  C6-C7-N3
# 97  C7-C6-H5
# 98  C7-C6-H6
# 99  C7-N3-C8
# 100  C7-N3-C9
# 101  C8-N3-C9
# 102  H1-C1-N1
# 103  H1-C1-N2
# 104  H10-C8-H11
# 105  H10-C8-H9
# 106  H10-C8-N3
# 107  H11-C8-H9
# 108  H11-C8-N3
# 109  H16-C17-H17
# 110  H16-C17-H18
# 111  H16-C17-N4
# 112  H17-C17-H18
# 113  H17-C17-N4
# 114  H18-C17-N4
# 115  H19-C18-H20
# 116  H19-C18-N4
# 117  H2-C2-N1
# 118  H20-C18-N4
# 119  H21-C19-H22
# 120  H23-C20-H24
# 121  H23-C20-N5
# 122  H24-C20-N5
# 123  H25-C21-N5
# 124  H26-C22-N5
# 125  H26-C22-N6
# 126  H27-C23-N6
# 127  H28-C24-H29
# 128  H28-C24-N2
# 129  H28-C24-N6
# 130  H29-C24-N2
# 131  H29-C24-N6
# 132  H3-C3-H4
# 133  H3-C3-N1
# 134  H34-C31-H35
# 135  H34-C31-H36
# 136  H35-C31-H36
# 137  H37-C4-N2
# 138  H38-C5-H39
# 139  H38-C5-H40
# 140  H38-C5-N2
# 141  H39-C5-H40
# 142  H39-C5-N2
# 143  H4-C3-N1
# 144  H40-C5-N2
# 145  H5-C6-H6
# 146  H7-C7-H8
# 147  H7-C7-N3
# 148  H8-C7-N3
# 149  H9-C8-N3
# 150  N1-C1-N2
# 151  N3-C9-O1
# 152  N4-C16-O2
# 153  N5-C22-N6

Dihedral Coeffs

1		0		5		0		0
2		0		7.25		0		0
3		0		0		0		0
4		0		5		0		0
5		0		7.25		0		0
6		0		10		0		0
7		0		10		0		0
8		0		0		0		0
9		0		1.1		0		0
10		0		0		0.3		0
11		0		0		0		0
12		0		0		0		0
13		0		0		0		0
14		0		0		0.3		0
15		0		0		0		0
16		0		0		0		0
17		0		7.25		0		0
18		4.753		-0.734		0		0
19		0		7.25		0		0
20		0		0		0.3		0
21		0		7.25		0		0
22		0		0		0.464		0
23		0		7.25		0		0
24		0		10		0		0
25		0		0		0		0
26		0		10.75		0		0
27		0		7.25		0		0
28		0		2.1		0		0
29		0		7.25		0		0
30		0		1.1		0		0
31		0		7.25		0		0
32		2.392		-0.674		0.55		0
33		0		10.75		0		0
34		0		7.25		0		0
35		0		7.25		0		0
36		0		10.75		0		0
37		0		5		0		0
38		0		0		0		0
39		0		5		0		0
40		0		0		0.3		0
41		0		0.462		0		0
42		0		0.462		0		0
43		0		2.1		0		0
44		0		7.25		0		0
45		0		0		0.3		0
46		1		-0.35		0		0
47		0		0		0.3		0
48		0		0		0		0
49		0		0		0.464		0
50		0		7.25		0		0
51		0		7.25		0		0
52		0		0		0		0
53		0		0		0		0
54		0		0		0		0
55		0		0		0.3		0
56		0		5		0		0
57		-1.013		-0.709		0.473		0
58		0		0		0.3		0
59		-1		-0.35		0		0
60		0		0		0		0
61		0		0		0		0
62		0		0		0		0
63		0		7.25		0		0
64		0		6.089		0		0
65		0		0		0		0
66		0		0		0		0
67		2.3		6.089		0		0
68		2.3		6.089		0		0
69		0		7.25		0		0
70		0		7.25		0		0
71		0		0		0		0
72		0		7.25		0		0
73		0		0		0		0
74		2.3		6.089		0		0
75		0		0		0.3		0
76		0		0		0		0
77		0		2.1		0		0
78		0		0		0		0
79		0		7.25		0		0
80		0		7.25		0		0
81		0		10		0		0
82		0		10		0		0
83		0		7.25		0		0
84		0		0		0		0
85		0		0		0		0
86		0		5		0		0
87		0		0		0.464		0
88		0		10		0		0
89		0		7.25		0		0
90		0		0		0		0
91		0		0		0		0
92		0		0		0		0
93		0.845		-0.962		0.713		0
94		0		7.25		0		0
95		0		6.089		0		0
96		0		10		0		0
97		0		1.1		0		0
98		0		7.25		0		0
99		0		10		0		0
100		0		0		0		0
101		0		10		0		0
102		0		7.25		0		0
103		0		0		0.3		0
104		0		0		0.3		0
105		0		10		0		0
106		0		0		0.3		0
107		0		0		0		0
108		0		0		0		0
109		0		0		0		0
110		0		10.75		0		0
111		0		0		0		0
112		0		0		0.3		0
113		0		10		0		0
114		0		0		0		0
115		0		7.25		0		0
116		0		6.089		0		0
117		0		6.089		0		0
118		0		0		0.3		0
119		0		7.25		0		0
120		0.845		-0.962		0.713		0
121		0		7.25		0		0
122		0		0		0		0
123		0		0		0		0
124		0		7.25		0		0
125		0		7.25		0		0
126		0		0		0.3		0
127		0		0		0		0
128		0		7.25		0		0
129		0		2.1		0		0
130		0		0		0		0
131		0		1.1		0		0
132		0		7.25		0		0
133		0		0		0.3		0
134		0		10		0		0
135		0		0		0		0
136		0		5		0		0
137		-1		-0.35		0		0
138		0		10.75		0		0
139		0		10		0		0
140		0		0		0		0
141		0		7.25		0		0
142		0		7.25		0		0
143		0		0		0.3		0
144		0		0		0		0
145		0		0		0		0
146		0		10		0		0
147		0		10.75		0		0
148		1		-0.35		0		0
149		0		7.25		0		0
150		0		0		0		0
151		0		7.25		0		0
152		0		0		0		0
153		0		5		0		0
154		0		0		0		0
155		0		7.25		0		0
156		0		7.25		0		0
157		0		0		0		0
158		0		0		0.3		0
159		0		0		0		0
160		0		0		0.3		0
161		0		0		0		0
162		4.753		-0.734		0		0
163		0		0		0		0
164		-1.013		-0.709		0.473		0
165		2.392		-0.674		0.55		0
166		0		0		0.3		0
167		0		0		0		0
168		-1.013		-0.709		0.473		0
169		0		5		0		0
170		0		7.25		0		0
171		0		5		0		0
172		0		7.25		0		0
173		0		0		0.3		0
174		0		5		0		0
175		0		0		0		0
176		0		7.25		0		0
177		0		10		0		0
178		0		0		0.3		0
179		0		0		0		0
180		0		7.25		0		0
181		0		5		0		0
182		0		5		0		0
183		0		10		0		0
184		0		7.25		0		0
185		0		10		0		0
186		0		0		0		0
187		0		5		0		0
188		0		5		0		0
189		0		0		0		0
190		0		7.25		0		0
191		0		0		0		0
192		0		7.25		0		0
193		0		0		0		0
194		0		7.25		0		0
195		0		0		0		0
196		0		0		0		0
197		0		5		0		0
198		0		0		0.464		0
199		0		7.25		0		0
200		0		0		0		0
201		0		7.25		0		0
202		0		0		0		0
203		0		0		0		0
204		0		10.75		0		0
205		2.3		6.089		0		0
206		0		7.25		0		0
207		0		7.25		0		0
208		0		0		0		0
209		0		0		0.3		0
210		0		0		0		0
211		-1.013		-0.709		0.473		0
212		0		7.25		0		0
213		0		7.25		0		0
214		0		5		0		0
215		0		0		0.3		0
216		0		10.75		0		0
217		0		10		0		0
218		0		0		0		0
219		0		5		0		0
220		0		0		0		0



# Dihedral Coeffs
#
# 1  C10-C11-C13-C15
# 2  C10-C11-C13-H14
# 3  C10-C12-C14-C15
# 4  C10-C12-C14-H15
# 5  C10-C9-N3-C7
# 6  C10-C9-N3-C8
# 7  C11-C10-C12-C14
# 8  C11-C10-C12-H13
# 9  C11-C10-C9-N3
# 10  C11-C10-C9-O1
# 11  C11-C13-C15-C14
# 12  C11-C13-C15-C16
# 13  C12-C10-C11-C13
# 14  C12-C10-C11-H12
# 15  C12-C10-C9-N3
# 16  C12-C10-C9-O1
# 17  C12-C14-C15-C13
# 18  C12-C14-C15-C16
# 19  C13-C15-C16-N4
# 20  C13-C15-C16-O2
# 21  C14-C15-C16-N4
# 22  C14-C15-C16-O2
# 23  C15-C16-N4-C17
# 24  C15-C16-N4-C18
# 25  C18-C19-C20-H23
# 26  C18-C19-C20-H24
# 27  C18-C19-C20-N5
# 28  C19-C18-N4-C16
# 29  C19-C18-N4-C17
# 30  C19-C20-N5-C21
# 31  C19-C20-N5-C22
# 32  C2-C4-N2-C1
# 33  C2-C4-N2-C24
# 34  C2-C4-N2-C5
# 35  C21-C23-N6-C22
# 36  C21-C23-N6-C24
# 37  C23-C21-N5-C20
# 38  C23-C21-N5-C22
# 39  C24-C25-C26-C28
# 40  C24-C25-C26-H30
# 41  C24-C25-C27-C29
# 42  C24-C25-C27-H31
# 43  C25-C24-N6-C22
# 44  C25-C24-N6-C23
# 45  C25-C26-C28-C30
# 46  C25-C26-C28-H32
# 47  C25-C27-C29-C30
# 48  C25-C27-C29-H33
# 49  C26-C25-C27-C29
# 50  C26-C25-C27-H31
# 51  C26-C28-C30-C24
# 52  C26-C28-C30-C29
# 53  C26-C28-C30-C31
# 54  C27-C25-C26-C28
# 55  C27-C25-C26-H30
# 56  C27-C29-C30-C24
# 57  C27-C29-C30-C28
# 58  C27-C29-C30-C31
# 59  C28-C30-C31-H34
# 60  C28-C30-C31-H35
# 61  C28-C30-C31-H36
# 62  C29-C30-C31-H34
# 63  C29-C30-C31-H35
# 64  C29-C30-C31-H36
# 65  C3-C6-C7-H7
# 66  C3-C6-C7-H8
# 67  C3-C6-C7-N3
# 68  C30-C24-N2-C1
# 69  C30-C24-N2-C4
# 70  C4-C2-N1-C1
# 71  C4-C2-N1-C3
# 72  C6-C3-N1-C1
# 73  C6-C3-N1-C2
# 74  C6-C7-N3-C8
# 75  C6-C7-N3-C9
# 76  C9-C10-C11-C13
# 77  C9-C10-C11-H12
# 78  C9-C10-C12-C14
# 79  C9-C10-C12-H13
# 80  H1-C1-N1-C2
# 81  H1-C1-N1-C3
# 82  H1-C1-N2-C24
# 83  H1-C1-N2-C4
# 84  H1-C1-N2-C5
# 85  H10-C8-N3-C7
# 86  H10-C8-N3-C9
# 87  H11-C8-N3-C7
# 88  H11-C8-N3-C9
# 89  H12-C11-C13-C15
# 90  H12-C11-C13-H14
# 91  H13-C12-C14-C15
# 92  H13-C12-C14-H15
# 93  H14-C13-C15-C14
# 94  H14-C13-C15-C16
# 95  H15-C14-C15-C13
# 96  H15-C14-C15-C16
# 97  H16-C17-N4-C16
# 98  H16-C17-N4-C18
# 99  H17-C17-N4-C16
# 100  H17-C17-N4-C18
# 101  H18-C17-N4-C16
# 102  H18-C17-N4-C18
# 103  H19-C18-C19-C20
# 104  H19-C18-C19-H21
# 105  H19-C18-C19-H22
# 106  H19-C18-N4-C16
# 107  H19-C18-N4-C17
# 108  H2-C2-C4-H37
# 109  H2-C2-C4-N2
# 110  H2-C2-N1-C1
# 111  H2-C2-N1-C3
# 112  H20-C18-C19-C20
# 113  H20-C18-C19-H21
# 114  H20-C18-C19-H22
# 115  H20-C18-N4-C16
# 116  H20-C18-N4-C17
# 117  H21-C19-C20-H23
# 118  H21-C19-C20-H24
# 119  H21-C19-C20-N5
# 120  H22-C19-C20-H23
# 121  H22-C19-C20-H24
# 122  H22-C19-C20-N5
# 123  H23-C20-N5-C21
# 124  H23-C20-N5-C22
# 125  H24-C20-N5-C21
# 126  H24-C20-N5-C22
# 127  H25-C21-C23-H27
# 128  H25-C21-C23-N6
# 129  H25-C21-N5-C20
# 130  H25-C21-N5-C22
# 131  H26-C22-N5-C20
# 132  H26-C22-N5-C21
# 133  H26-C22-N6-C23
# 134  H26-C22-N6-C24
# 135  H27-C23-N6-C22
# 136  H27-C23-N6-C24
# 137  H28-C24-C25-C26
# 138  H28-C24-C25-C27
# 139  H28-C24-C30-C28
# 140  H28-C24-C30-C29
# 141  H28-C24-N2-C1
# 142  H28-C24-N2-C4
# 143  H28-C24-N6-C22
# 144  H28-C24-N6-C23
# 145  H29-C24-C25-C26
# 146  H29-C24-C25-C27
# 147  H29-C24-C30-C28
# 148  H29-C24-C30-C29
# 149  H29-C24-N2-C1
# 150  H29-C24-N2-C4
# 151  H29-C24-N6-C22
# 152  H29-C24-N6-C23
# 153  H3-C3-C6-C7
# 154  H3-C3-C6-H5
# 155  H3-C3-C6-H6
# 156  H3-C3-N1-C1
# 157  H3-C3-N1-C2
# 158  H30-C26-C28-C30
# 159  H30-C26-C28-H32
# 160  H31-C27-C29-C30
# 161  H31-C27-C29-H33
# 162  H32-C28-C30-C24
# 163  H32-C28-C30-C29
# 164  H32-C28-C30-C31
# 165  H33-C29-C30-C24
# 166  H33-C29-C30-C28
# 167  H33-C29-C30-C31
# 168  H37-C4-N2-C1
# 169  H37-C4-N2-C24
# 170  H37-C4-N2-C5
# 171  H38-C5-N2-C1
# 172  H38-C5-N2-C4
# 173  H39-C5-N2-C1
# 174  H39-C5-N2-C4
# 175  H4-C3-C6-C7
# 176  H4-C3-C6-H5
# 177  H4-C3-C6-H6
# 178  H4-C3-N1-C1
# 179  H4-C3-N1-C2
# 180  H40-C5-N2-C1
# 181  H40-C5-N2-C4
# 182  H5-C6-C7-H7
# 183  H5-C6-C7-H8
# 184  H5-C6-C7-N3
# 185  H6-C6-C7-H7
# 186  H6-C6-C7-H8
# 187  H6-C6-C7-N3
# 188  H7-C7-N3-C8
# 189  H7-C7-N3-C9
# 190  H8-C7-N3-C8
# 191  H8-C7-N3-C9
# 192  H9-C8-N3-C7
# 193  H9-C8-N3-C9
# 194  N1-C1-N2-C24
# 195  N1-C1-N2-C4
# 196  N1-C1-N2-C5
# 197  N1-C2-C4-H37
# 198  N1-C2-C4-N2
# 199  N1-C3-C6-C7
# 200  N1-C3-C6-H5
# 201  N1-C3-C6-H6
# 202  N2-C1-N1-C2
# 203  N2-C1-N1-C3
# 204  N2-C24-C30-C28
# 205  N2-C24-C30-C29
# 206  N4-C18-C19-C20
# 207  N4-C18-C19-H21
# 208  N4-C18-C19-H22
# 209  N5-C21-C23-H27
# 210  N5-C21-C23-N6
# 211  N5-C22-N6-C23
# 212  N5-C22-N6-C24
# 213  N6-C22-N5-C20
# 214  N6-C22-N5-C21
# 215  N6-C24-C25-C26
# 216  N6-C24-C25-C27
# 217  O1-C9-N3-C7
# 218  O1-C9-N3-C8
# 219  O2-C16-N4-C17
# 220  O2-C16-N4-C18

 Masses

 1 12.010700 # C1
 2 12.010700 # C10
 3 12.010700 # C11
 4 12.010700 # C12
 5 12.010700 # C13
 6 12.010700 # C14
 7 12.010700 # C15
 8 12.010700 # C16
 9 12.010700 # C17
 10 12.010700 # C18
 11 12.010700 # C19
 12 12.010700 # C2
 13 12.010700 # C20
 14 12.010700 # C21
 15 12.010700 # C22
 16 12.010700 # C23
 17 12.010700 # C24
 18 12.010700 # C25
 19 12.010700 # C26
 20 12.010700 # C27
 21 12.010700 # C28
 22 12.010700 # C29
 23 12.010700 # C3
 24 12.010700 # C30
 25 12.010700 # C31
 26 12.010700 # C4
 27 12.010700 # C5
 28 12.010700 # C6
 29 12.010700 # C7
 30 12.010700 # C8
 31 12.010700 # C9
 32 1.007940 # H1
 33 1.007940 # H10
 34 1.007940 # H11
 35 1.007940 # H12
 36 1.007940 # H13
 37 1.007940 # H14
 38 1.007940 # H15
 39 1.007940 # H16
 40 1.007940 # H17
 41 1.007940 # H18
 42 1.007940 # H19
 43 1.007940 # H2
 44 1.007940 # H20
 45 1.007940 # H21
 46 1.007940 # H22
 47 1.007940 # H23
 48 1.007940 # H24
 49 1.007940 # H25
 50 1.007940 # H26
 51 1.007940 # H27
 52 1.007940 # H28
 53 1.007940 # H29
 54 1.007940 # H3
 55 1.007940 # H30
 56 1.007940 # H31
 57 1.007940 # H32
 58 1.007940 # H33
 59 1.007940 # H34
 60 1.007940 # H35
 61 1.007940 # H36
 62 1.007940 # H37
 63 1.007940 # H38
 64 1.007940 # H39
 65 1.007940 # H4
 66 1.007940 # H40
 67 1.007940 # H5
 68 1.007940 # H6
 69 1.007940 # H7
 70 1.007940 # H8
 71 1.007940 # H9
 72 14.006700 # N1
 73 14.006700 # N2
 74 14.006700 # N3
 75 14.006700 # N4
 76 14.006700 # N5
 77 14.006700 # N6
 78 15.999400 # O1
 79 15.999400 # O2

 Atoms # full

1	1	25	-0.0521	7.052	-16.62113	15.06208	#	C31
2	1	59	0.0995	7.322	-17.58556	14.62117	#	H34
3	1	60	0.0995	7.657	-16.496981	15.96589	#	H35
4	1	61	0.0995	5.994	-16.64258	15.34	#	H36
5	1	32	0.2498	1	1	0	#	H1
6	1	1	0.0985	-0.082	1	0	#	C1
7	1	72	-0.1862	-0.861	1	1.13089	#	N1
8	1	73	-0.1732	-0.863	1.00143	-1.12799	#	N2
9	1	12	-0.0596	-2.18	1.0017	0.67843	#	C2
10	1	23	-0.0027	-0.406	0.90769	2.50033	#	C3
11	1	26	-0.0608	-2.179	1.06252	-0.6733	#	C4
12	1	17	0.0433	-0.413	1.16409	-2.48542	#	C24
13	1	43	0.2262	-3.011	0.96024	1.3645	#	H2
14	1	28	-0.2089	-0.19	-0.55132	2.89315	#	C6
15	1	54	0.1391	-1.143	1.37189	3.16755	#	H3
16	1	65	0.1391	0.528	1.47198	2.62121	#	H4
17	1	29	0.1227	0.203	-0.6646	4.36437	#	C7
18	1	67	0.1023	-1.104	-1.12905	2.70795	#	H5
19	1	68	0.1023	0.589	-0.99578	2.2609	#	H6
20	1	74	-0.8095	0.499	-2.04615	4.74081	#	N3
21	1	69	0.1122	-0.598	-0.29123	5.01207	#	H7
22	1	70	0.1122	1.084	-0.04183	4.55607	#	H8
23	1	30	0.0737	-0.637	-2.90506	5.05659	#	C8
24	1	31	0.5573	1.813	-2.49241	4.59532	#	C9
25	1	71	0.0894	-0.326	-3.79349	5.60952	#	H9
26	1	33	0.0894	-1.121	-3.20582	4.12361	#	H10
27	1	34	0.0894	-1.347	-2.35122	5.67784	#	H11
28	1	2	-0.1037	2.092	-3.93754	4.71152	#	C10
29	1	78	-0.3723	2.767	-1.75111	4.37212	#	O1
30	1	3	-0.082	2.919	-4.38401	5.74957	#	C11
31	1	4	-0.1069	1.581	-4.83163	3.76245	#	C12
32	1	35	0.1579	3.343	-3.67055	6.45288	#	H12
33	1	5	-0.1066	3.191	-5.74712	5.87313	#	C13
34	1	36	0.1395	0.975	-4.46934	2.93505	#	H13
35	1	6	-0.083	1.855	-6.19445	3.88476	#	C14
36	1	37	0.1414	3.831	-6.10348	6.67694	#	H14
37	1	7	-0.1023	2.633	-6.64725	4.95699	#	C15
38	1	38	0.1561	1.468	-6.89883	3.15327	#	H15
39	1	8	0.5579	2.809	-8.10242	5.14059	#	C16
40	1	75	-0.8117	4.089	-8.64821	5.03194	#	N4
41	1	79	-0.3697	1.802	-8.76029	5.38419	#	O2
42	1	9	0.0746	5.294	-7.87996	4.74499	#	C17
43	1	10	0.1223	4.264	-10.05105	5.40523	#	C18
44	1	39	0.0886	5.971	-8.48623	4.13636	#	H16
45	1	40	0.0886	5.781	-7.62324	5.68927	#	H17
46	1	41	0.0886	5.066	-6.96855	4.18893	#	H18
47	1	11	-0.2071	4.612	-10.20824	6.8832	#	C19
48	1	42	0.1108	3.339	-10.59751	5.18621	#	H19
49	1	44	0.1108	5.046	-10.48337	4.77133	#	H20
50	1	13	0.0016	4.678	-11.68473	7.26602	#	C20
51	1	45	0.1029	3.864	-9.69607	7.50191	#	H21
52	1	46	0.1029	5.573	-9.72099	7.09216	#	H22
53	1	76	-0.2003	5.092	-11.83579	8.64364	#	N5
54	1	47	0.136	3.697	-12.15355	7.12081	#	H23
55	1	48	0.136	5.38	-12.211	6.60756	#	H24
56	1	14	-0.0633	4.288	-11.71252	9.77616	#	C21
57	1	15	0.0939	6.37	-12.01968	9.11035	#	C22
58	1	49	0.2254	3.226	-11.53888	9.69711	#	H25
59	1	16	-0.051	5.057	-11.84378	10.87676	#	C23
60	1	50	0.2446	7.246	-12.11525	8.48263	#	H26
61	1	77	-0.1688	6.382	-12.06382	10.48304	#	N6
62	1	51	0.23	4.779	-11.79896	11.91865	#	H27
63	1	17	0.0433	7.547	-12.16397	11.34077	#	C24
64	1	18	-0.1652	7.461	-13.33184	12.2999	#	C25
65	1	52	0.1327	8.46	-12.28339	10.7425	#	H28
66	1	53	0.1327	7.658	-11.22359	11.89491	#	H29
67	1	19	-0.0952	7.69	-13.14335	13.66985	#	C26
68	1	20	-0.1093	7.207	-14.62863	11.83156	#	C27
69	1	55	0.138	7.932	-12.15577	14.05719	#	H30
70	1	21	-0.1209	7.61	-14.21898	14.55981	#	C28
71	1	56	0.122	7.027	-14.79675	10.77164	#	H31
72	1	22	-0.1203	7.179	-15.71268	12.71324	#	C29
73	1	57	0.1555	7.791	-14.04567	15.61826	#	H32
74	1	24	-0.0233	7.303	-15.50178	14.09445	#	C30
75	1	58	0.1521	7.059	-16.716141	12.31208	#	H33
76	1	62	0.2289	-3.008	1.14362	-1.35906	#	H37
77	1	52	0.1327	-1.3523	0.351672	-2.58951	#	H28
78	1	53	0.1327	0.557	0.67779	-2.6369	#	H29
79	1	32	0.2498	-6.465	18.785219	-17.547501	#	H1
80	1	1	0.0985	-7.547	18.785219	-17.547501	#	C1
81	1	72	-0.1862	-8.326	18.785219	-16.416611	#	N1
82	1	73	-0.1732	-8.328	18.78665	-18.675489	#	N2
83	1	12	-0.0596	-9.645	18.786921	-16.86907	#	C2
84	1	23	-0.0027	-7.871	18.692909	-15.04717	#	C3
85	1	26	-0.0608	-9.644	18.84774	-18.2208	#	C4
86	1	27	-0.0703	-7.878	18.94931	-20.032921	#	C5
87	1	43	0.2262	-10.476	18.745461	-16.183001	#	H2
88	1	28	-0.2089	-7.655	17.2339	-14.65435	#	C6
89	1	54	0.1391	-8.608	19.15711	-14.37995	#	H3
90	1	65	0.1391	-6.937	19.2572	-14.92629	#	H4
91	1	29	0.1227	-7.262	17.120621	-13.18313	#	C7
92	1	67	0.1023	-8.569	16.65617	-14.83955	#	H5
93	1	68	0.1023	-6.876	16.78944	-15.2866	#	H6
94	1	74	-0.8095	-6.966	15.73907	-12.80669	#	N3
95	1	69	0.1122	-8.063	17.49399	-12.53543	#	H7
96	1	70	0.1122	-6.381	17.743389	-12.99143	#	H8
97	1	30	0.0737	-8.102	14.88016	-12.49091	#	C8
98	1	31	0.5573	-5.652	15.29281	-12.95218	#	C9
99	1	71	0.0894	-7.791	13.99173	-11.93798	#	H9
100	1	33	0.0894	-8.586	14.5794	-13.42389	#	H10
101	1	34	0.0894	-8.812	15.434	-11.86966	#	H11
102	1	2	-0.1037	-5.373	13.84768	-12.83598	#	C10
103	1	78	-0.3723	-4.698	16.034109	-13.17538	#	O1
104	1	3	-0.082	-4.546	13.40121	-11.79793	#	C11
105	1	4	-0.1069	-5.884	12.95359	-13.78505	#	C12
106	1	35	0.1579	-4.122	14.11467	-11.09462	#	H12
107	1	5	-0.1066	-4.274	12.0381	-11.67437	#	C13
108	1	36	0.1395	-6.49	13.31588	-14.61245	#	H13
109	1	6	-0.083	-5.61	11.59077	-13.66274	#	C14
110	1	37	0.1414	-3.634	11.68174	-10.87056	#	H14
111	1	7	-0.1023	-4.832	11.13797	-12.59051	#	C15
112	1	38	0.1561	-5.997	10.88639	-14.39423	#	H15
113	1	8	0.5579	-4.656	9.6828	-12.40691	#	C16
114	1	75	-0.8117	-3.376	9.13701	-12.51556	#	N4
115	1	79	-0.3697	-5.663	9.02493	-12.16331	#	O2
116	1	9	0.0746	-2.171	9.90526	-12.80251	#	C17
117	1	10	0.1223	-3.201	7.73417	-12.14227	#	C18
118	1	39	0.0886	-1.494	9.29899	-13.41114	#	H16
119	1	40	0.0886	-1.684	10.16198	-11.85823	#	H17
120	1	41	0.0886	-2.399	10.81667	-13.35857	#	H18
121	1	11	-0.2071	-2.853	7.57698	-10.6643	#	C19
122	1	42	0.1108	-4.126	7.18771	-12.36129	#	H19
123	1	44	0.1108	-2.419	7.30185	-12.77617	#	H20
124	1	13	0.0016	-2.787	6.10049	-10.28148	#	C20
125	1	45	0.1029	-3.601	8.08915	-10.04559	#	H21
126	1	46	0.1029	-1.892	8.06423	-10.45534	#	H22
127	1	76	-0.2003	-2.373	5.94943	-8.90386	#	N5
128	1	47	0.136	-3.768	5.63167	-10.42669	#	H23
129	1	48	0.136	-2.085	5.57422	-10.93994	#	H24
130	1	14	-0.0633	-3.177	6.0727	-7.77134	#	C21
131	1	15	0.0939	-1.095	5.76554	-8.43715	#	C22
132	1	49	0.2254	-4.239	6.24634	-7.85039	#	H25
133	1	16	-0.051	-2.408	5.94144	-6.67074	#	C23
134	1	50	0.2446	-0.219	5.66997	-9.06487	#	H26
135	1	77	-0.1688	-1.083	5.7214	-7.06446	#	N6
136	1	51	0.23	-2.686	5.98626	-5.62885	#	H27
137	1	17	0.0433	0.082	5.62125	-6.20673	#	C24
138	1	18	-0.1652	-0.004	4.45338	-5.2476	#	C25
139	1	52	0.1327	0.995	5.50183	-6.805	#	H28
140	1	53	0.1327	0.193	6.56163	-5.65259	#	H29
141	1	19	-0.0952	0.225	4.64187	-3.87765	#	C26
142	1	20	-0.1093	-0.258	3.15659	-5.71594	#	C27
143	1	55	0.138	0.467	5.62945	-3.49031	#	H30
144	1	21	-0.1209	0.145	3.56624	-2.98769	#	C28
145	1	56	0.122	-0.438	2.98847	-6.77586	#	H31
146	1	22	-0.1203	-0.286	2.07254	-4.83426	#	C29
147	1	57	0.1555	0.326	3.73955	-1.92924	#	H32
148	1	24	-0.0233	-0.162	2.28344	-3.45305	#	C30
149	1	58	0.1521	-0.406	1.06908	-5.23542	#	H33
150	1	62	0.2289	-10.473	18.928841	-18.906561	#	H37
151	1	63	0.1348	-8.588	18.50194	-20.737009	#	H38
152	1	64	0.1348	-6.908	18.463011	-20.184401	#	H39
153	1	66	0.1348	-7.774	20.01214	-20.27673	#	H40


 Bonds

1 64 1 2
2 65 1 3
3 66 1 4
4 63 1 74
5 1 5 6
6 2 6 7
7 3 6 8
8 31 7 9
9 62 7 10
10 47 8 12
11 68 8 11
12 30 9 13
13 29 9 11
14 60 10 15
15 61 10 16
16 59 10 14
17 67 11 76
18 44 12 148
19 46 12 78
20 45 12 77
21 75 14 19
22 73 14 17
23 74 14 18
24 78 17 20
25 77 17 22
26 76 17 21
27 83 20 24
28 82 20 23
29 79 23 26
30 80 23 27
31 81 23 25
32 84 24 29
33 6 24 28
34 4 28 30
35 5 28 31
36 8 30 32
37 7 30 33
38 10 31 34
39 9 31 35
40 11 33 37
41 12 33 36
42 13 35 37
43 14 35 38
44 15 37 39
45 17 39 41
46 16 39 40
47 25 40 43
48 21 40 42
49 19 42 45
50 18 42 44
51 20 42 46
52 24 43 49
53 22 43 47
54 23 43 48
55 26 47 50
56 27 47 51
57 28 47 52
58 33 50 55
59 34 50 53
60 32 50 54
61 37 53 56
62 39 53 57
63 35 56 59
64 36 56 58
65 38 57 60
66 40 57 61
67 42 59 61
68 41 59 62
69 48 61 63
70 45 63 65
71 46 63 66
72 43 63 64
73 50 64 68
74 49 64 67
75 52 67 69
76 51 67 70
77 54 68 71
78 53 68 72
79 56 70 73
80 55 70 74
81 58 72 75
82 57 72 74
83 1 79 80
84 3 80 82
85 2 80 81
86 62 81 84
87 31 81 83
88 72 82 86
89 68 82 85
90 29 83 85
91 30 83 87
92 59 84 88
93 61 84 90
94 60 84 89
95 67 85 150
96 70 86 152
97 71 86 153
98 69 86 151
99 73 88 91
100 75 88 93
101 74 88 92
102 78 91 94
103 77 91 96
104 76 91 95
105 83 94 98
106 82 94 97
107 81 97 99
108 79 97 100
109 80 97 101
110 84 98 103
111 6 98 102
112 5 102 105
113 4 102 104
114 8 104 106
115 7 104 107
116 9 105 109
117 10 105 108
118 11 107 111
119 12 107 110
120 13 109 111
121 14 109 112
122 15 111 113
123 17 113 115
124 16 113 114
125 21 114 116
126 25 114 117
127 18 116 118
128 19 116 119
129 20 116 120
130 24 117 123
131 22 117 121
132 23 117 122
133 27 121 125
134 28 121 126
135 26 121 124
136 33 124 129
137 34 124 127
138 32 124 128
139 37 127 130
140 39 127 131
141 36 130 132
142 35 130 133
143 40 131 135
144 38 131 134
145 42 133 135
146 41 133 136
147 48 135 137
148 45 137 139
149 43 137 138
150 46 137 140
151 50 138 142
152 49 138 141
153 51 141 144
154 52 141 143
155 54 142 145
156 53 142 146
157 55 144 148
158 56 144 147
159 58 146 149
160 57 146 148

 Angles

1 134 2 1 3
2 135 2 1 4
3 85 2 1 74
4 136 3 1 4
5 86 3 1 74
6 87 4 1 74
7 102 5 6 7
8 103 5 6 8
9 150 7 6 8
10 1 6 7 9
11 2 6 7 10
12 42 9 7 10
13 3 6 8 12
14 4 6 8 11
15 59 11 8 12