LAMMPS data file. CGCMM style. atom_style full generated by VMD/TopoTools v1.7 on Mon Aug 07 05:45:32 -0400 2023
 597 atoms
 628 bonds
 1110 angles
 1600 dihedrals
 0 impropers
 79 atom types
 84 bond types
 153 angle types
 220 dihedral types
 0 improper types
 -60.00000 10.00000  xlo xhi
 -20.00000 130.0000  ylo yhi
 -130.0000 20.00000  zlo zhi

Pair Coeffs

1	0.07	3.55
2	0.07	3.55
3	0.07	3.55
4	0.07	3.55
5	0.07	3.55
6	0.07	3.55
7	0.07	3.55
8	0.07	3.55
9	0.066	3.5
10	0.066	3.5
11	0.066	3.5
12	0.07	3.55
13	0.066	3.5
14	0.07	3.55
15	0.07	3.55
16	0.07	3.55
17	0.066	3.5
18	0.07	3.55
19	0.07	3.55
20	0.07	3.55
21	0.07	3.55
22	0.07	3.55
23	0.066	3.5
24	0.07	3.55
25	0.066	3.5
26	0.07	3.55
27	0.066	3.5
28	0.066	3.5
29	0.066	3.5
30	0.066	3.5
31	0.07	3.55
32	0.03	2.42
33	0.03	2.5
34	0.03	2.5
35	0.03	2.42
36	0.03	2.42
37	0.03	2.42
38	0.03	2.42
39	0.03	2.5
40	0.03	2.5
41	0.03	2.5
42	0.03	2.5
43	0.03	2.42
44	0.03	2.5
45	0.03	2.5
46	0.03	2.5
47	0.03	2.5
48	0.03	2.5
49	0.03	2.42
50	0.03	2.42
51	0.03	2.42
52	0.03	2.5
53	0.03	2.5
54	0.03	2.5
55	0.03	2.42
56	0.03	2.42
57	0.03	2.42
58	0.03	2.42
59	0.03	2.5
60	0.03	2.5
61	0.03	2.5
62	0.03	2.42
63	0.03	2.5
64	0.03	2.5
65	0.03	2.5
66	0.03	2.5
67	0.03	2.5
68	0.03	2.5
69	0.03	2.5
70	0.03	2.5
71	0.03	2.5
72	0.17	3.25
73	0.17	3.25
74	0.17	3.25
75	0.17	3.25
76	0.17	3.25
77	0.17	3.25
78	0.21	2.96
79	0.21	2.96

# Pair Coeffs
#
# 1  C1
# 2  C10
# 3  C11
# 4  C12
# 5  C13
# 6  C14
# 7  C15
# 8  C16
# 9  C17
# 10  C18
# 11  C19
# 12  C2
# 13  C20
# 14  C21
# 15  C22
# 16  C23
# 17  C24
# 18  C25
# 19  C26
# 20  C27
# 21  C28
# 22  C29
# 23  C3
# 24  C30
# 25  C31
# 26  C4
# 27  C5
# 28  C6
# 29  C7
# 30  C8
# 31  C9
# 32  H1
# 33  H10
# 34  H11
# 35  H12
# 36  H13
# 37  H14
# 38  H15
# 39  H16
# 40  H17
# 41  H18
# 42  H19
# 43  H2
# 44  H20
# 45  H21
# 46  H22
# 47  H23
# 48  H24
# 49  H25
# 50  H26
# 51  H27
# 52  H28
# 53  H29
# 54  H3
# 55  H30
# 56  H31
# 57  H32
# 58  H33
# 59  H34
# 60  H35
# 61  H36
# 62  H37
# 63  H38
# 64  H39
# 65  H4
# 66  H40
# 67  H5
# 68  H6
# 69  H7
# 70  H8
# 71  H9
# 72  N1
# 73  N2
# 74  N3
# 75  N4
# 76  N5
# 77  N6
# 78  O1
# 79  O2

Bond Coeffs

1		367		1.08
2		477		1.343
3		477		1.343
4		469		1.4
5		469		1.4
6		400		1.49
7		469		1.4
8		367		1.08
9		469		1.4
10		367		1.08
11		469		1.4
12		367		1.08
13		469		1.4
14		367		1.08
15		400		1.49
16		490		1.335
17		570		1.229
18		340		1.09
19		340		1.09
20		340		1.09
21		337		1.449
22		268		1.529
23		340		1.09
24		340		1.09
25		337		1.449
26		268		1.529
27		340		1.09
28		340		1.09
29		512		1.375
30		367		1.08
31		427		1.381
32		340		1.09
33		340		1.09
34		337		1.475
35		512		1.375
36		367		1.08
37		427		1.381
38		367		1.08
39		477		1.343
40		477		1.343
41		367		1.08
42		427		1.381
43		317		1.51
44		317		1.51
45		340		1.09
46		340		1.09
47		337		1.475
48		337		1.475
49		469		1.4
50		469		1.4
51		469		1.4
52		367		1.08
53		469		1.4
54		367		1.08
55		469		1.4
56		367		1.08
57		469		1.4
58		367		1.08
59		268		1.529
60		340		1.09
61		340		1.09
62		337		1.475
63		317		1.51
64		340		1.09
65		340		1.09
66		340		1.09
67		367		1.08
68		427		1.381
69		340		1.09
70		340		1.09
71		340		1.09
72		337		1.475
73		268		1.529
74		340		1.09
75		340		1.09
76		340		1.09
77		340		1.09
78		337		1.449
79		340		1.09
80		340		1.09
81		340		1.09
82		337		1.449
83		490		1.335
84		570		1.229

# Bond Coeffs
#
# 1  C1-H1
# 2  C1-N1
# 3  C1-N2
# 4  C10-C11
# 5  C10-C12
# 6  C10-C9
# 7  C11-C13
# 8  C11-H12
# 9  C12-C14
# 10  C12-H13
# 11  C13-C15
# 12  C13-H14
# 13  C14-C15
# 14  C14-H15
# 15  C15-C16
# 16  C16-N4
# 17  C16-O2
# 18  C17-H16
# 19  C17-H17
# 20  C17-H18
# 21  C17-N4
# 22  C18-C19
# 23  C18-H19
# 24  C18-H20
# 25  C18-N4
# 26  C19-C20
# 27  C19-H21
# 28  C19-H22
# 29  C2-C4
# 30  C2-H2
# 31  C2-N1
# 32  C20-H23
# 33  C20-H24
# 34  C20-N5
# 35  C21-C23
# 36  C21-H25
# 37  C21-N5
# 38  C22-H26
# 39  C22-N5
# 40  C22-N6
# 41  C23-H27
# 42  C23-N6
# 43  C24-C25
# 44  C24-C30
# 45  C24-H28
# 46  C24-H29
# 47  C24-N2
# 48  C24-N6
# 49  C25-C26
# 50  C25-C27
# 51  C26-C28
# 52  C26-H30
# 53  C27-C29
# 54  C27-H31
# 55  C28-C30
# 56  C28-H32
# 57  C29-C30
# 58  C29-H33
# 59  C3-C6
# 60  C3-H3
# 61  C3-H4
# 62  C3-N1
# 63  C30-C31
# 64  C31-H34
# 65  C31-H35
# 66  C31-H36
# 67  C4-H37
# 68  C4-N2
# 69  C5-H38
# 70  C5-H39
# 71  C5-H40
# 72  C5-N2
# 73  C6-C7
# 74  C6-H5
# 75  C6-H6
# 76  C7-H7
# 77  C7-H8
# 78  C7-N3
# 79  C8-H10
# 80  C8-H11
# 81  C8-H9
# 82  C8-N3
# 83  C9-N3
# 84  C9-O1

Angle Coeffs

1		70		109.8
2		63		112.4
3		63		112.4
4		70		109.8
5		63		112.4
6		63		120
7		35		120
8		63		120
9		35		120
10		70		115.5
11		80		120.4
12		63		120
13		85		120
14		63		120
15		35		120
16		85		120
17		63		120
18		35		120
19		35		120
20		63		120
21		85		120
22		35		120
23		85		120
24		35		120
25		35		120
26		70		115.5
27		80		120.4
28		50		121.9
29		50		121.9
30		50		118
31		58.35		112.7
32		37.5		110.7
33		37.5		110.7
34		37.5		110.7
35		37.5		110.7
36		80		109.7
37		37.5		110.7
38		37.5		110.7
39		51.65		110.58
40		35		130.7
41		70		120
42		63		112.4
43		37.5		110.7
44		37.5		110.7
45		63		112.4
46		63		112.4
47		35		130.7
48		70		120
49		70		109.8
50		70		109.8
51		63		112.4
52		35		130.7
53		70		120
54		63		112.4
55		70		120
56		70		120
57		70		120
58		70		120
59		63		112.4
60		35		109.5
61		35		109.5
62		80		111.2
63		63		120
64		35		120
65		63		120
66		35		120
67		63		120
68		63		120
69		35		120
70		63		120
71		35		120
72		35		120
73		63		120
74		70		120
75		35		120
76		70		120
77		58.35		112.7
78		37.5		110.7
79		37.5		110.7
80		70		120
81		35		109.5
82		80		111.2
83		35		120
84		35		120
85		35		109.5
86		35		109.5
87		35		109.5
88		35		130.7
89		70		120
90		63		112.4
91		37.5		110.7
92		37.5		110.7
93		51.65		110.58
94		37.5		110.7
95		37.5		110.7
96		80		109.7
97		37.5		110.7
98		37.5		110.7
99		50		118
100		50		121.9
101		50		121.9
102		35		120
103		35		120
104		33		107.8
105		33		107.8
106		35		109.5
107		33		107.8
108		35		109.5
109		33		107.8
110		33		107.8
111		35		109.5
112		33		107.8
113		35		109.5
114		35		109.5
115		33		107.8
116		35		109.5
117		35		121.6
118		35		109.5
119		33		107.8
120		33		107.8
121		35		109.5
122		35		109.5
123		35		121.6
124		35		120
125		35		120
126		35		121.6
127		33		107.8
128		35		109.5
129		35		109.5
130		35		109.5
131		35		109.5
132		33		107.8
133		35		109.5
134		33		107.8
135		33		107.8
136		33		107.8
137		35		121.6
138		33		107.8
139		33		107.8
140		35		109.5
141		33		107.8
142		35		109.5
143		35		109.5
144		35		109.5
145		33		107.8
146		33		107.8
147		35		109.5
148		35		109.5
149		35		109.5
150		70		120
151		80		122.9
152		80		122.9
153		70		120

# Angle Coeffs
#
# 1  C1-N1-C2
# 2  C1-N1-C3
# 3  C1-N2-C24
# 4  C1-N2-C4
# 5  C1-N2-C5
# 6  C10-C11-C13
# 7  C10-C11-H12
# 8  C10-C12-C14
# 9  C10-C12-H13
# 10  C10-C9-N3
# 11  C10-C9-O1
# 12  C11-C10-C12
# 13  C11-C10-C9
# 14  C11-C13-C15
# 15  C11-C13-H14
# 16  C12-C10-C9
# 17  C12-C14-C15
# 18  C12-C14-H15
# 19  C13-C11-H12
# 20  C13-C15-C14
# 21  C13-C15-C16
# 22  C14-C12-H13
# 23  C14-C15-C16
# 24  C15-C13-H14
# 25  C15-C14-H15
# 26  C15-C16-N4
# 27  C15-C16-O2
# 28  C16-N4-C17
# 29  C16-N4-C18
# 30  C17-N4-C18
# 31  C18-C19-C20
# 32  C18-C19-H21
# 33  C18-C19-H22
# 34  C19-C18-H19
# 35  C19-C18-H20
# 36  C19-C18-N4
# 37  C19-C20-H23
# 38  C19-C20-H24
# 39  C19-C20-N5
# 40  C2-C4-H37
# 41  C2-C4-N2
# 42  C2-N1-C3
# 43  C20-C19-H21
# 44  C20-C19-H22
# 45  C20-N5-C21
# 46  C20-N5-C22
# 47  C21-C23-H27
# 48  C21-C23-N6
# 49  C21-N5-C22
# 50  C22-N6-C23
# 51  C22-N6-C24
# 52  C23-C21-H25
# 53  C23-C21-N5
# 54  C23-N6-C24
# 55  C24-C25-C26
# 56  C24-C25-C27
# 57  C24-C30-C28
# 58  C24-C30-C29
# 59  C24-N2-C4
# 60  C25-C24-H28
# 61  C25-C24-H29
# 62  C25-C24-N6
# 63  C25-C26-C28
# 64  C25-C26-H30
# 65  C25-C27-C29
# 66  C25-C27-H31
# 67  C26-C25-C27
# 68  C26-C28-C30
# 69  C26-C28-H32
# 70  C27-C29-C30
# 71  C27-C29-H33
# 72  C28-C26-H30
# 73  C28-C30-C29
# 74  C28-C30-C31
# 75  C29-C27-H31
# 76  C29-C30-C31
# 77  C3-C6-C7
# 78  C3-C6-H5
# 79  C3-C6-H6
# 80  C30-C24-H28
# 81  C30-C24-H29
# 82  C30-C24-N2
# 83  C30-C28-H32
# 84  C30-C29-H33
# 85  C30-C31-H34
# 86  C30-C31-H35
# 87  C30-C31-H36
# 88  C4-C2-H2
# 89  C4-C2-N1
# 90  C4-N2-C5
# 91  C6-C3-H3
# 92  C6-C3-H4
# 93  C6-C3-N1
# 94  C6-C7-H7
# 95  C6-C7-H8
# 96  C6-C7-N3
# 97  C7-C6-H5
# 98  C7-C6-H6
# 99  C7-N3-C8
# 100  C7-N3-C9
# 101  C8-N3-C9
# 102  H1-C1-N1
# 103  H1-C1-N2
# 104  H10-C8-H11
# 105  H10-C8-H9
# 106  H10-C8-N3
# 107  H11-C8-H9
# 108  H11-C8-N3
# 109  H16-C17-H17
# 110  H16-C17-H18
# 111  H16-C17-N4
# 112  H17-C17-H18
# 113  H17-C17-N4
# 114  H18-C17-N4
# 115  H19-C18-H20
# 116  H19-C18-N4
# 117  H2-C2-N1
# 118  H20-C18-N4
# 119  H21-C19-H22
# 120  H23-C20-H24
# 121  H23-C20-N5
# 122  H24-C20-N5
# 123  H25-C21-N5
# 124  H26-C22-N5
# 125  H26-C22-N6
# 126  H27-C23-N6
# 127  H28-C24-H29
# 128  H28-C24-N2
# 129  H28-C24-N6
# 130  H29-C24-N2
# 131  H29-C24-N6
# 132  H3-C3-H4
# 133  H3-C3-N1
# 134  H34-C31-H35
# 135  H34-C31-H36
# 136  H35-C31-H36
# 137  H37-C4-N2
# 138  H38-C5-H39
# 139  H38-C5-H40
# 140  H38-C5-N2
# 141  H39-C5-H40
# 142  H39-C5-N2
# 143  H4-C3-N1
# 144  H40-C5-N2
# 145  H5-C6-H6
# 146  H7-C7-H8
# 147  H7-C7-N3
# 148  H8-C7-N3
# 149  H9-C8-N3
# 150  N1-C1-N2
# 151  N3-C9-O1
# 152  N4-C16-O2
# 153  N5-C22-N6

Dihedral Coeffs

1		0		5		0		0
2		0		7.25		0		0
3		0		0		0		0
4		0		5		0		0
5		0		7.25		0		0
6		0		10		0		0
7		0		10		0		0
8		0		0		0		0
9		0		1.1		0		0
10		0		0		0.3		0
11		0		0		0		0
12		0		0		0		0
13		0		0		0		0
14		0		0		0.3		0
15		0		0		0		0
16		0		0		0		0
17		0		7.25		0		0
18		4.753		-0.734		0		0
19		0		7.25		0		0
20		0		0		0.3		0
21		0		7.25		0		0
22		0		0		0.464		0
23		0		7.25		0		0
24		0		10		0		0
25		0		0		0		0
26		0		10.75		0		0
27		0		7.25		0		0
28		0		2.1		0		0
29		0		7.25		0		0
30		0		1.1		0		0
31		0		7.25		0		0
32		2.392		-0.674		0.55		0
33		0		10.75		0		0
34		0		7.25		0		0
35		0		7.25		0		0
36		0		10.75		0		0
37		0		5		0		0
38		0		0		0		0
39		0		5		0		0
40		0		0		0.3		0
41		0		0.462		0		0
42		0		0.462		0		0
43		0		2.1		0		0
44		0		7.25		0		0
45		0		0		0.3		0
46		1		-0.35		0		0
47		0		0		0.3		0
48		0		0		0		0
49		0		0		0.464		0
50		0		7.25		0		0
51		0		7.25		0		0
52		0		0		0		0
53		0		0		0		0
54		0		0		0		0
55		0		0		0.3		0
56		0		5		0		0
57		-1.013		-0.709		0.473		0
58		0		0		0.3		0
59		-1		-0.35		0		0
60		0		0		0		0
61		0		0		0		0
62		0		0		0		0
63		0		7.25		0		0
64		0		6.089		0		0
65		0		0		0		0
66		0		0		0		0
67		2.3		6.089		0		0
68		2.3		6.089		0		0
69		0		7.25		0		0
70		0		7.25		0		0
71		0		0		0		0
72		0		7.25		0		0
73		0		0		0		0
74		2.3		6.089		0		0
75		0		0		0.3		0
76		0		0		0		0
77		0		2.1		0		0
78		0		0		0		0
79		0		7.25		0		0
80		0		7.25		0		0
81		0		10		0		0
82		0		10		0		0
83		0		7.25		0		0
84		0		0		0		0
85		0		0		0		0
86		0		5		0		0
87		0		0		0.464		0
88		0		10		0		0
89		0		7.25		0		0
90		0		0		0		0
91		0		0		0		0
92		0		0		0		0
93		0.845		-0.962		0.713		0
94		0		7.25		0		0
95		0		6.089		0		0
96		0		10		0		0
97		0		1.1		0		0
98		0		7.25		0		0
99		0		10		0		0
100		0		0		0		0
101		0		10		0		0
102		0		7.25		0		0
103		0		0		0.3		0
104		0		0		0.3		0
105		0		10		0		0
106		0		0		0.3		0
107		0		0		0		0
108		0		0		0		0
109		0		0		0		0
110		0		10.75		0		0
111		0		0		0		0
112		0		0		0.3		0
113		0		10		0		0
114		0		0		0		0
115		0		7.25		0		0
116		0		6.089		0		0
117		0		6.089		0		0
118		0		0		0.3		0
119		0		7.25		0		0
120		0.845		-0.962		0.713		0
121		0		7.25		0		0
122		0		0		0		0
123		0		0		0		0
124		0		7.25		0		0
125		0		7.25		0		0
126		0		0		0.3		0
127		0		0		0		0
128		0		7.25		0		0
129		0		2.1		0		0
130		0		0		0		0
131		0		1.1		0		0
132		0		7.25		0		0
133		0		0		0.3		0
134		0		10		0		0
135		0		0		0		0
136		0		5		0		0
137		-1		-0.35		0		0
138		0		10.75		0		0
139		0		10		0		0
140		0		0		0		0
141		0		7.25		0		0
142		0		7.25		0		0
143		0		0		0.3		0
144		0		0		0		0
145		0		0		0		0
146		0		10		0		0
147		0		10.75		0		0
148		1		-0.35		0		0
149		0		7.25		0		0
150		0		0		0		0
151		0		7.25		0		0
152		0		0		0		0
153		0		5		0		0
154		0		0		0		0
155		0		7.25		0		0
156		0		7.25		0		0
157		0		0		0		0
158		0		0		0.3		0
159		0		0		0		0
160		0		0		0.3		0
161		0		0		0		0
162		4.753		-0.734		0		0
163		0		0		0		0
164		-1.013		-0.709		0.473		0
165		2.392		-0.674		0.55		0
166		0		0		0.3		0
167		0		0		0		0
168		-1.013		-0.709		0.473		0
169		0		5		0		0
170		0		7.25		0		0
171		0		5		0		0
172		0		7.25		0		0
173		0		0		0.3		0
174		0		5		0		0
175		0		0		0		0
176		0		7.25		0		0
177		0		10		0		0
178		0		0		0.3		0
179		0		0		0		0
180		0		7.25		0		0
181		0		5		0		0
182		0		5		0		0
183		0		10		0		0
184		0		7.25		0		0
185		0		10		0		0
186		0		0		0		0
187		0		5		0		0
188		0		5		0		0
189		0		0		0		0
190		0		7.25		0		0
191		0		0		0		0
192		0		7.25		0		0
193		0		0		0		0
194		0		7.25		0		0
195		0		0		0		0
196		0		0		0		0
197		0		5		0		0
198		0		0		0.464		0
199		0		7.25		0		0
200		0		0		0		0
201		0		7.25		0		0
202		0		0		0		0
203		0		0		0		0
204		0		10.75		0		0
205		2.3		6.089		0		0
206		0		7.25		0		0
207		0		7.25		0		0
208		0		0		0		0
209		0		0		0.3		0
210		0		0		0		0
211		-1.013		-0.709		0.473		0
212		0		7.25		0		0
213		0		7.25		0		0
214		0		5		0		0
215		0		0		0.3		0
216		0		10.75		0		0
217		0		10		0		0
218		0		0		0		0
219		0		5		0		0
220		0		0		0		0

# Dihedral Coeffs
#
# 1  C10-C11-C13-C15
# 2  C10-C11-C13-H14
# 3  C10-C12-C14-C15
# 4  C10-C12-C14-H15
# 5  C10-C9-N3-C7
# 6  C10-C9-N3-C8
# 7  C11-C10-C12-C14
# 8  C11-C10-C12-H13
# 9  C11-C10-C9-N3
# 10  C11-C10-C9-O1
# 11  C11-C13-C15-C14
# 12  C11-C13-C15-C16
# 13  C12-C10-C11-C13
# 14  C12-C10-C11-H12
# 15  C12-C10-C9-N3
# 16  C12-C10-C9-O1
# 17  C12-C14-C15-C13
# 18  C12-C14-C15-C16
# 19  C13-C15-C16-N4
# 20  C13-C15-C16-O2
# 21  C14-C15-C16-N4
# 22  C14-C15-C16-O2
# 23  C15-C16-N4-C17
# 24  C15-C16-N4-C18
# 25  C18-C19-C20-H23
# 26  C18-C19-C20-H24
# 27  C18-C19-C20-N5
# 28  C19-C18-N4-C16
# 29  C19-C18-N4-C17
# 30  C19-C20-N5-C21
# 31  C19-C20-N5-C22
# 32  C2-C4-N2-C1
# 33  C2-C4-N2-C24
# 34  C2-C4-N2-C5
# 35  C21-C23-N6-C22
# 36  C21-C23-N6-C24
# 37  C23-C21-N5-C20
# 38  C23-C21-N5-C22
# 39  C24-C25-C26-C28
# 40  C24-C25-C26-H30
# 41  C24-C25-C27-C29
# 42  C24-C25-C27-H31
# 43  C25-C24-N6-C22
# 44  C25-C24-N6-C23
# 45  C25-C26-C28-C30
# 46  C25-C26-C28-H32
# 47  C25-C27-C29-C30
# 48  C25-C27-C29-H33
# 49  C26-C25-C27-C29
# 50  C26-C25-C27-H31
# 51  C26-C28-C30-C24
# 52  C26-C28-C30-C29
# 53  C26-C28-C30-C31
# 54  C27-C25-C26-C28
# 55  C27-C25-C26-H30
# 56  C27-C29-C30-C24
# 57  C27-C29-C30-C28
# 58  C27-C29-C30-C31
# 59  C28-C30-C31-H34
# 60  C28-C30-C31-H35
# 61  C28-C30-C31-H36
# 62  C29-C30-C31-H34
# 63  C29-C30-C31-H35
# 64  C29-C30-C31-H36
# 65  C3-C6-C7-H7
# 66  C3-C6-C7-H8
# 67  C3-C6-C7-N3
# 68  C30-C24-N2-C1
# 69  C30-C24-N2-C4
# 70  C4-C2-N1-C1
# 71  C4-C2-N1-C3
# 72  C6-C3-N1-C1
# 73  C6-C3-N1-C2
# 74  C6-C7-N3-C8
# 75  C6-C7-N3-C9
# 76  C9-C10-C11-C13
# 77  C9-C10-C11-H12
# 78  C9-C10-C12-C14
# 79  C9-C10-C12-H13
# 80  H1-C1-N1-C2
# 81  H1-C1-N1-C3
# 82  H1-C1-N2-C24
# 83  H1-C1-N2-C4
# 84  H1-C1-N2-C5
# 85  H10-C8-N3-C7
# 86  H10-C8-N3-C9
# 87  H11-C8-N3-C7
# 88  H11-C8-N3-C9
# 89  H12-C11-C13-C15
# 90  H12-C11-C13-H14
# 91  H13-C12-C14-C15
# 92  H13-C12-C14-H15
# 93  H14-C13-C15-C14
# 94  H14-C13-C15-C16
# 95  H15-C14-C15-C13
# 96  H15-C14-C15-C16
# 97  H16-C17-N4-C16
# 98  H16-C17-N4-C18
# 99  H17-C17-N4-C16
# 100  H17-C17-N4-C18
# 101  H18-C17-N4-C16
# 102  H18-C17-N4-C18
# 103  H19-C18-C19-C20
# 104  H19-C18-C19-H21
# 105  H19-C18-C19-H22
# 106  H19-C18-N4-C16
# 107  H19-C18-N4-C17
# 108  H2-C2-C4-H37
# 109  H2-C2-C4-N2
# 110  H2-C2-N1-C1
# 111  H2-C2-N1-C3
# 112  H20-C18-C19-C20
# 113  H20-C18-C19-H21
# 114  H20-C18-C19-H22
# 115  H20-C18-N4-C16
# 116  H20-C18-N4-C17
# 117  H21-C19-C20-H23
# 118  H21-C19-C20-H24
# 119  H21-C19-C20-N5
# 120  H22-C19-C20-H23
# 121  H22-C19-C20-H24
# 122  H22-C19-C20-N5
# 123  H23-C20-N5-C21
# 124  H23-C20-N5-C22
# 125  H24-C20-N5-C21
# 126  H24-C20-N5-C22
# 127  H25-C21-C23-H27
# 128  H25-C21-C23-N6
# 129  H25-C21-N5-C20
# 130  H25-C21-N5-C22
# 131  H26-C22-N5-C20
# 132  H26-C22-N5-C21
# 133  H26-C22-N6-C23
# 134  H26-C22-N6-C24
# 135  H27-C23-N6-C22
# 136  H27-C23-N6-C24
# 137  H28-C24-C25-C26
# 138  H28-C24-C25-C27
# 139  H28-C24-C30-C28
# 140  H28-C24-C30-C29
# 141  H28-C24-N2-C1
# 142  H28-C24-N2-C4
# 143  H28-C24-N6-C22
# 144  H28-C24-N6-C23
# 145  H29-C24-C25-C26
# 146  H29-C24-C25-C27
# 147  H29-C24-C30-C28
# 148  H29-C24-C30-C29
# 149  H29-C24-N2-C1
# 150  H29-C24-N2-C4
# 151  H29-C24-N6-C22
# 152  H29-C24-N6-C23
# 153  H3-C3-C6-C7
# 154  H3-C3-C6-H5
# 155  H3-C3-C6-H6
# 156  H3-C3-N1-C1
# 157  H3-C3-N1-C2
# 158  H30-C26-C28-C30
# 159  H30-C26-C28-H32
# 160  H31-C27-C29-C30
# 161  H31-C27-C29-H33
# 162  H32-C28-C30-C24
# 163  H32-C28-C30-C29
# 164  H32-C28-C30-C31
# 165  H33-C29-C30-C24
# 166  H33-C29-C30-C28
# 167  H33-C29-C30-C31
# 168  H37-C4-N2-C1
# 169  H37-C4-N2-C24
# 170  H37-C4-N2-C5
# 171  H38-C5-N2-C1
# 172  H38-C5-N2-C4
# 173  H39-C5-N2-C1
# 174  H39-C5-N2-C4
# 175  H4-C3-C6-C7
# 176  H4-C3-C6-H5
# 177  H4-C3-C6-H6
# 178  H4-C3-N1-C1
# 179  H4-C3-N1-C2
# 180  H40-C5-N2-C1
# 181  H40-C5-N2-C4
# 182  H5-C6-C7-H7
# 183  H5-C6-C7-H8
# 184  H5-C6-C7-N3
# 185  H6-C6-C7-H7
# 186  H6-C6-C7-H8
# 187  H6-C6-C7-N3
# 188  H7-C7-N3-C8
# 189  H7-C7-N3-C9
# 190  H8-C7-N3-C8
# 191  H8-C7-N3-C9
# 192  H9-C8-N3-C7
# 193  H9-C8-N3-C9
# 194  N1-C1-N2-C24
# 195  N1-C1-N2-C4
# 196  N1-C1-N2-C5
# 197  N1-C2-C4-H37
# 198  N1-C2-C4-N2
# 199  N1-C3-C6-C7
# 200  N1-C3-C6-H5
# 201  N1-C3-C6-H6
# 202  N2-C1-N1-C2
# 203  N2-C1-N1-C3
# 204  N2-C24-C30-C28
# 205  N2-C24-C30-C29
# 206  N4-C18-C19-C20
# 207  N4-C18-C19-H21
# 208  N4-C18-C19-H22
# 209  N5-C21-C23-H27
# 210  N5-C21-C23-N6
# 211  N5-C22-N6-C23
# 212  N5-C22-N6-C24
# 213  N6-C22-N5-C20
# 214  N6-C22-N5-C21
# 215  N6-C24-C25-C26
# 216  N6-C24-C25-C27
# 217  O1-C9-N3-C7
# 218  O1-C9-N3-C8
# 219  O2-C16-N4-C17
# 220  O2-C16-N4-C18

 Masses

 1 12.010700 # C1
 2 12.010700 # C10
 3 12.010700 # C11
 4 12.010700 # C12
 5 12.010700 # C13
 6 12.010700 # C14
 7 12.010700 # C15
 8 12.010700 # C16
 9 12.010700 # C17
 10 12.010700 # C18
 11 12.010700 # C19
 12 12.010700 # C2
 13 12.010700 # C20
 14 12.010700 # C21
 15 12.010700 # C22
 16 12.010700 # C23
 17 12.010700 # C24
 18 12.010700 # C25
 19 12.010700 # C26
 20 12.010700 # C27
 21 12.010700 # C28
 22 12.010700 # C29
 23 12.010700 # C3
 24 12.010700 # C30
 25 12.010700 # C31
 26 12.010700 # C4
 27 12.010700 # C5
 28 12.010700 # C6
 29 12.010700 # C7
 30 12.010700 # C8
 31 12.010700 # C9
 32 1.007940 # H1
 33 1.007940 # H10
 34 1.007940 # H11
 35 1.007940 # H12
 36 1.007940 # H13
 37 1.007940 # H14
 38 1.007940 # H15
 39 1.007940 # H16
 40 1.007940 # H17
 41 1.007940 # H18
 42 1.007940 # H19
 43 1.007940 # H2
 44 1.007940 # H20
 45 1.007940 # H21
 46 1.007940 # H22
 47 1.007940 # H23
 48 1.007940 # H24
 49 1.007940 # H25
 50 1.007940 # H26
 51 1.007940 # H27
 52 1.007940 # H28
 53 1.007940 # H29
 54 1.007940 # H3
 55 1.007940 # H30
 56 1.007940 # H31
 57 1.007940 # H32
 58 1.007940 # H33
 59 1.007940 # H34
 60 1.007940 # H35
 61 1.007940 # H36
 62 1.007940 # H37
 63 1.007940 # H38
 64 1.007940 # H39
 65 1.007940 # H4
 66 1.007940 # H40
 67 1.007940 # H5
 68 1.007940 # H6
 69 1.007940 # H7
 70 1.007940 # H8
 71 1.007940 # H9
 72 14.006700 # N1
 73 14.006700 # N2
 74 14.006700 # N3
 75 14.006700 # N4
 76 14.006700 # N5
 77 14.006700 # N6
 78 15.999400 # O1
 79 15.999400 # O2

 Atoms # full

1	1	25	0.763300	7.052000	-16.621130	15.062080
2	1	59	0.099500	7.322000	-17.585560	14.621170
3	1	60	0.099500	7.657000	-16.496980	15.965890
4	1	61	0.099500	5.994000	-16.642580	15.340000
5	1	32	0.249800	1.000000	1.000000	0.000000
6	1	1	0.098500	-0.082000	1.000000	0.000000
7	1	72	-0.186200	-0.861000	1.000000	1.130890
8	1	73	-0.173200	-0.863000	1.001430	-1.127990
9	1	12	-0.059600	-2.180000	1.001700	0.678430
10	1	23	-0.002700	-0.406000	0.907690	2.500330
11	1	26	-0.060800	-2.179000	1.062520	-0.673300
12	1	17	0.043300	-0.413000	1.164090	-2.485420
13	1	43	0.226200	-3.011000	0.960240	1.364500
14	1	28	-0.208900	-0.190000	-0.551320	2.893150
15	1	54	0.139100	-1.143000	1.371890	3.167550
16	1	65	0.139100	0.528000	1.471980	2.621210
17	1	29	0.122700	0.203000	-0.664600	4.364370
18	1	67	0.102300	-1.104000	-1.129050	2.707950
19	1	68	0.102300	0.589000	-0.995780	2.260900
20	1	74	-0.809500	0.499000	-2.046150	4.740810
21	1	69	0.112200	-0.598000	-0.291230	5.012070
22	1	70	0.112200	1.084000	-0.041830	4.556070
23	1	30	0.073700	-0.637000	-2.905060	5.056590
24	1	31	0.557300	1.813000	-2.492410	4.595320
25	1	71	0.089400	-0.326000	-3.793490	5.609520
26	1	33	0.089400	-1.121000	-3.205820	4.123610
27	1	34	0.089400	-1.347000	-2.351220	5.677840
28	1	2	-0.103700	2.092000	-3.937540	4.711520
29	1	78	-0.372300	2.767000	-1.751110	4.372120
30	1	3	-0.082000	2.919000	-4.384010	5.749570
31	1	4	-0.106900	1.581000	-4.831630	3.762450
32	1	35	0.157900	3.343000	-3.670550	6.452880
33	1	5	-0.106600	3.191000	-5.747120	5.873130
34	1	36	0.139500	0.975000	-4.469340	2.935050
35	1	6	-0.083000	1.855000	-6.194450	3.884760
36	1	37	0.141400	3.831000	-6.103480	6.676940
37	1	7	-0.102300	2.633000	-6.647250	4.956990
38	1	38	0.156100	1.468000	-6.898830	3.153270
39	1	8	0.557900	2.809000	-8.102420	5.140590
40	1	75	-0.811700	4.089000	-8.648210	5.031940
41	1	79	-0.369700	1.802000	-8.760290	5.384190
42	1	9	0.074600	5.294000	-7.879960	4.744990
43	1	10	0.122300	4.264000	-10.051050	5.405230
44	1	39	0.088600	5.971000	-8.486230	4.136360
45	1	40	0.088600	5.781000	-7.623240	5.689270
46	1	41	0.088600	5.066000	-6.968550	4.188930
47	1	11	-0.207100	4.612000	-10.208240	6.883200
48	1	42	0.110800	3.339000	-10.597510	5.186210
49	1	44	0.110800	5.046000	-10.483370	4.771330
50	1	13	0.001600	4.678000	-11.684730	7.266020
51	1	45	0.102900	3.864000	-9.696070	7.501910
52	1	46	0.102900	5.573000	-9.720990	7.092160
53	1	76	-0.200300	5.092000	-11.835790	8.643640
54	1	47	0.136000	3.697000	-12.153550	7.120810
55	1	48	0.136000	5.380000	-12.211000	6.607560
56	1	14	-0.063300	4.288000	-11.712520	9.776160
57	1	15	0.093900	6.370000	-12.019680	9.110350
58	1	49	0.225400	3.226000	-11.538880	9.697110
59	1	16	-0.051000	5.057000	-11.843780	10.876760
60	1	50	0.244600	7.246000	-12.115250	8.482630
61	1	77	-0.168800	6.382000	-12.063820	10.483040
62	1	51	0.230000	4.779000	-11.798960	11.918650
63	1	17	0.043300	7.547000	-12.163970	11.340770
64	1	18	-0.165200	7.461000	-13.331840	12.299900
65	1	52	0.132700	8.460000	-12.283390	10.742500
66	1	53	0.132700	7.658000	-11.223590	11.894910
67	1	19	-0.095200	7.690000	-13.143350	13.669850
68	1	20	-0.109300	7.207000	-14.628630	11.831560
69	1	55	0.138000	7.932000	-12.155770	14.057190
70	1	21	-0.120900	7.610000	-14.218980	14.559810
71	1	56	0.122000	7.027000	-14.796750	10.771640
72	1	22	-0.120300	7.179000	-15.712680	12.713240
73	1	57	0.155500	7.791000	-14.045670	15.618260
74	1	24	-0.023300	7.303000	-15.501780	14.094450
75	1	58	0.152100	7.059000	-16.716140	12.312080
76	1	62	0.228900	-3.008000	1.143620	-1.359060
77	1	52	0.132700	-1.123000	0.716720	-2.589510
78	1	53	0.132700	0.557000	0.677790	-2.636900
79	1	32	0.249800	-6.465000	18.785220	-17.547500
80	1	1	0.098500	-7.547000	18.785220	-17.547500
81	1	72	-0.186200	-8.326000	18.785220	-16.416610
82	1	73	-0.173200	-8.328000	18.786650	-18.675490
83	1	12	-0.059600	-9.645000	18.786920	-16.869070
84	1	23	-0.002700	-7.871000	18.692910	-15.047170
85	1	26	-0.060800	-9.644000	18.847740	-18.220800
86	1	17	0.043300	-7.878000	18.949310	-20.032920
87	1	43	0.226200	-10.476000	18.745460	-16.183000
88	1	28	-0.208900	-7.655000	17.233900	-14.654350
89	1	54	0.139100	-8.608000	19.157110	-14.379950
90	1	65	0.139100	-6.937000	19.257200	-14.926290
91	1	29	0.122700	-7.262000	17.120620	-13.183130
92	1	67	0.102300	-8.569000	16.656170	-14.839550
93	1	68	0.102300	-6.876000	16.789440	-15.286600
94	1	74	-0.809500	-6.966000	15.739070	-12.806690
95	1	69	0.112200	-8.063000	17.493990	-12.535430
96	1	70	0.112200	-6.381000	17.743390	-12.991430
97	1	30	0.073700	-8.102000	14.880160	-12.490910
98	1	31	0.557300	-5.652000	15.292810	-12.952180
99	1	71	0.089400	-7.791000	13.991730	-11.937980
100	1	33	0.089400	-8.586000	14.579400	-13.423890
101	1	34	0.089400	-8.812000	15.434000	-11.869660
102	1	2	-0.103700	-5.373000	13.847680	-12.835980
103	1	78	-0.372300	-4.698000	16.034110	-13.175380
104	1	3	-0.082000	-4.546000	13.401210	-11.797930
105	1	4	-0.106900	-5.884000	12.953590	-13.785050
106	1	35	0.157900	-4.122000	14.114670	-11.094620
107	1	5	-0.106600	-4.274000	12.038100	-11.674370
108	1	36	0.139500	-6.490000	13.315880	-14.612450
109	1	6	-0.083000	-5.610000	11.590770	-13.662740
110	1	37	0.141400	-3.634000	11.681740	-10.870560
111	1	7	-0.102300	-4.832000	11.137970	-12.590510
112	1	38	0.156100	-5.997000	10.886390	-14.394230
113	1	8	0.557900	-4.656000	9.682800	-12.406910
114	1	75	-0.811700	-3.376000	9.137010	-12.515560
115	1	79	-0.369700	-5.663000	9.024930	-12.163310
116	1	9	0.074600	-2.171000	9.905260	-12.802510
117	1	10	0.122300	-3.201000	7.734170	-12.142270
118	1	39	0.088600	-1.494000	9.298990	-13.411140
119	1	40	0.088600	-1.684000	10.161980	-11.858230
120	1	41	0.088600	-2.399000	10.816670	-13.358570
121	1	11	-0.207100	-2.853000	7.576980	-10.664300
122	1	42	0.110800	-4.126000	7.187710	-12.361290
123	1	44	0.110800	-2.419000	7.301850	-12.776170
124	1	13	0.001600	-2.787000	6.100490	-10.281480
125	1	45	0.102900	-3.601000	8.089150	-10.045590
126	1	46	0.102900	-1.892000	8.064230	-10.455340
127	1	76	-0.200300	-2.373000	5.949430	-8.903860
128	1	47	0.136000	-3.768000	5.631670	-10.426690
129	1	48	0.136000	-2.085000	5.574220	-10.939940
130	1	14	-0.063300	-3.177000	6.072700	-7.771340
131	1	15	0.093900	-1.095000	5.765540	-8.437150
132	1	49	0.225400	-4.239000	6.246340	-7.850390
133	1	16	-0.051000	-2.408000	5.941440	-6.670740
134	1	50	0.244600	-0.219000	5.669970	-9.064870
135	1	77	-0.168800	-1.083000	5.721400	-7.064460
136	1	51	0.230000	-2.686000	5.986260	-5.628850
137	1	17	0.043300	0.082000	5.621250	-6.206730
138	1	18	-0.165200	-0.004000	4.453380	-5.247600
139	1	52	0.132700	0.995000	5.501830	-6.805000
140	1	53	0.132700	0.193000	6.561630	-5.652590
141	1	19	-0.095200	0.225000	4.641870	-3.877650
142	1	20	-0.109300	-0.258000	3.156590	-5.715940
143	1	55	0.138000	0.467000	5.629450	-3.490310
144	1	21	-0.120900	0.145000	3.566240	-2.987690
145	1	56	0.122000	-0.438000	2.988470	-6.775860
146	1	22	-0.120300	-0.286000	2.072540	-4.834260
147	1	57	0.155500	0.326000	3.739550	-1.929240
148	1	24	-0.023300	-0.162000	2.283440	-3.453050
149	1	58	0.152100	-0.406000	1.069080	-5.235420
150	1	62	0.228900	-10.473000	18.928840	-18.906560
151	1	52	0.132700	-8.588000	18.501940	-20.137010
152	1	53	0.132700	-6.908000	18.463010	-20.184400
153	1	32	0.249800	-13.930000	36.570440	-35.095000
154	1	1	0.098500	-15.012000	36.570440	-35.095000
155	1	72	-0.186200	-15.791000	36.570440	-33.964110
156	1	73	-0.173200	-15.793000	36.571870	-36.222990
157	1	12	-0.059600	-17.110000	36.572140	-34.416570
158	1	23	-0.002700	-15.336000	36.478130	-32.594670
159	1	26	-0.060800	-17.109000	36.632960	-35.768300
160	1	17	0.043300	-15.343000	36.734530	-37.580420
161	1	43	0.226200	-17.941000	36.530680	-33.730500
162	1	28	-0.208900	-15.120000	35.019120	-32.201850
163	1	54	0.139100	-16.073000	36.942330	-31.927450
164	1	65	0.139100	-14.402000	37.042420	-32.473790
165	1	29	0.122700	-14.727000	34.905840	-30.730630
166	1	67	0.102300	-16.034000	34.441390	-32.387050
167	1	68	0.102300	-14.341000	34.574660	-32.834100
168	1	74	-0.809500	-14.431000	33.524290	-30.354190
169	1	69	0.112200	-15.528000	35.279210	-30.082930
170	1	70	0.112200	-13.846000	35.528610	-30.538930
171	1	30	0.073700	-15.567000	32.665380	-30.038410
172	1	31	0.557300	-13.117000	33.078030	-30.499680
173	1	71	0.089400	-15.256000	31.776950	-29.485480
174	1	33	0.089400	-16.051000	32.364620	-30.971390
175	1	34	0.089400	-16.277000	33.219220	-29.417160
176	1	2	-0.103700	-12.838000	31.632900	-30.383480
177	1	78	-0.372300	-12.163000	33.819330	-30.722880
178	1	3	-0.082000	-12.011000	31.186430	-29.345430
179	1	4	-0.106900	-13.349000	30.738810	-31.332550
180	1	35	0.157900	-11.587000	31.899890	-28.642120
181	1	5	-0.106600	-11.739000	29.823320	-29.221870
182	1	36	0.139500	-13.955000	31.101100	-32.159950
183	1	6	-0.083000	-13.075000	29.375990	-31.210240
184	1	37	0.141400	-11.099000	29.466960	-28.418060
185	1	7	-0.102300	-12.297000	28.923190	-30.138010
186	1	38	0.156100	-13.462000	28.671610	-31.941730
187	1	8	0.557900	-12.121000	27.468020	-29.954410
188	1	75	-0.811700	-10.841000	26.922230	-30.063060
189	1	79	-0.369700	-13.128000	26.810150	-29.710810
190	1	9	0.074600	-9.636000	27.690480	-30.350010
191	1	10	0.122300	-10.666000	25.519390	-29.689770
192	1	39	0.088600	-8.959000	27.084210	-30.958640
193	1	40	0.088600	-9.149000	27.947200	-29.405730
194	1	41	0.088600	-9.864000	28.601890	-30.906070
195	1	11	-0.207100	-10.318000	25.362200	-28.211800
196	1	42	0.110800	-11.591000	24.972930	-29.908790
197	1	44	0.110800	-9.884000	25.087070	-30.323670
198	1	13	0.001600	-10.252000	23.885710	-27.828980
199	1	45	0.102900	-11.066000	25.874370	-27.593090
200	1	46	0.102900	-9.357000	25.849450	-28.002840
201	1	76	-0.200300	-9.838000	23.734650	-26.451360
202	1	47	0.136000	-11.233000	23.416890	-27.974190
203	1	48	0.136000	-9.550000	23.359440	-28.487440
204	1	14	-0.063300	-10.642000	23.857920	-25.318840
205	1	15	0.093900	-8.560000	23.550760	-25.984650
206	1	49	0.225400	-11.704000	24.031560	-25.397890
207	1	16	-0.051000	-9.873000	23.726660	-24.218240
208	1	50	0.244600	-7.684000	23.455190	-26.612370
209	1	77	-0.168800	-8.548000	23.506620	-24.611960
210	1	51	0.230000	-10.151000	23.771480	-23.176350
211	1	17	0.043300	-7.383000	23.406470	-23.754230
212	1	18	-0.165200	-7.469000	22.238600	-22.795100
213	1	52	0.132700	-6.470000	23.287050	-24.352500
214	1	53	0.132700	-7.272000	24.346850	-23.200090
215	1	19	-0.095200	-7.240000	22.427090	-21.425150
216	1	20	-0.109300	-7.723000	20.941810	-23.263440
217	1	55	0.138000	-6.998000	23.414670	-21.037810
218	1	21	-0.120900	-7.320000	21.351460	-20.535190
219	1	56	0.122000	-7.903000	20.773690	-24.323360
220	1	22	-0.120300	-7.751000	19.857760	-22.381760
221	1	57	0.155500	-7.139000	21.524770	-19.476740
222	1	24	-0.023300	-7.627000	20.068660	-21.000550
223	1	58	0.152100	-7.871000	18.854300	-22.782920