LAMMPS data file. CGCMM style. atom_style full generated by VMD/TopoTools v1.7 on Tue Apr 18 13:57:59 -0400 2023
 141 atoms
 148 bonds
 258 angles
 376 dihedrals
 0 impropers
 73 atom types
 78 bond types
 141 angle types
 208 dihedral types
 0 improper types
 -10.00000 10.00000  xlo xhi
 -10.00000 10.00000  ylo yhi
 -40.00000 40.00000  zlo zhi

Pair Coeffs

1 0.070000 3.550000
2 0.070000 3.550000
3 0.070000 3.550000
4 0.070000 3.550000
5 0.070000 3.550000
6 0.070000 3.550000
7 0.070000 3.550000
8 0.066000 3.500000
9 0.066000 3.500000
10 0.066000 3.500000
11 0.070000 3.550000
12 0.070000 3.550000
13 0.070000 3.550000
14 0.070000 3.550000
15 0.066000 3.500000
16 0.070000 3.550000
17 0.070000 3.550000
18 0.070000 3.550000
19 0.070000 3.550000
20 0.070000 3.550000
21 0.070000 3.550000
22 0.066000 3.500000
23 0.066000 3.500000
24 0.066000 3.500000
25 0.070000 3.550000
26 0.066000 3.500000
27 0.066000 3.500000
28 0.070000 3.550000
29 0.070000 3.550000
30 0.030000 2.420000
31 0.030000 2.420000
32 0.030000 2.420000
33 0.030000 2.420000
34 0.030000 2.420000
35 0.000000 0.000000
36 0.030000 2.500000
37 0.030000 2.500000
38 0.030000 2.500000
39 0.030000 2.500000
40 0.030000 2.500000
41 0.030000 2.420000
42 0.030000 2.500000
43 0.030000 2.420000
44 0.030000 2.420000
45 0.030000 2.420000
46 0.030000 2.500000
47 0.030000 2.500000
48 0.030000 2.420000
49 0.030000 2.420000
50 0.030000 2.420000
51 0.030000 2.420000
52 0.030000 2.500000
53 0.030000 2.500000
54 0.030000 2.500000
55 0.030000 2.500000
56 0.030000 2.500000
57 0.030000 2.500000
58 0.030000 2.500000
59 0.030000 2.420000
60 0.030000 2.500000
61 0.030000 2.500000
62 0.030000 2.500000
63 0.030000 2.500000
64 0.030000 2.500000
65 0.000000 0.000000
66 0.170000 3.250000
67 0.170000 3.250000
68 0.170000 3.250000
69 0.170000 3.250000
70 0.170000 3.250000
71 0.170000 3.250000
72 0.210000 2.960000
73 0.210000 2.960000

#
# 1  C1
# 2  C10
# 3  C11
# 4  C12
# 5  C13
# 6  C14
# 7  C15
# 8  C16
# 9  C17
# 10  C18
# 11  C19
# 12  C2
# 13  C20
# 14  C21
# 15  C22
# 16  C23
# 17  C24
# 18  C25
# 19  C26
# 20  C27
# 21  C28
# 22  C29
# 23  C3
# 24  C4
# 25  C5
# 26  C6
# 27  C7
# 28  C8
# 29  C9
# 30  H1
# 31  H10
# 32  H11
# 33  H12
# 34  H13
# 35  H14
# 36  H15
# 37  H16
# 38  H17
# 39  H18
# 40  H19
# 41  H2
# 42  H20
# 43  H21
# 44  H22
# 45  H23
# 46  H24
# 47  H25
# 48  H26
# 49  H27
# 50  H28
# 51  H29
# 52  H3
# 53  H30
# 54  H31
# 55  H32
# 56  H33
# 57  H34
# 58  H35
# 59  H36
# 60  H4
# 61  H5
# 62  H6
# 63  H7
# 64  H8
# 65  H9
# 66  N1
# 67  N2
# 68  N3
# 69  N4
# 70  N5
# 71  N6
# 72  O1
# 73  O2

Bond Coeffs

1	367	1.08
2	477	1.343
3	477	1.343
4	469	1.4
5	469	1.4
6	367	1.08
7	469	1.4
8	340	1.09
9	367	1.08
10	469	1.4
11	367	1.08
12	469	1.4
13	367	1.08
14	400	1.49
15	490	1.335
16	570	1.229
17	268	1.529
18	340	1.09
19	340	1.09
20	337	1.449
21	268	1.529
22	340	1.09
23	340	1.09
24	340	1.09
25	340	1.09
26	337	1.475
27	512	1.375
28	367	1.08
29	427	1.381
30	512	1.375
31	367	1.08
32	427	1.381
33	367	1.08
34	477	1.343
35	477	1.343
36	367	1.08
37	427	1.381
38	317	1.51
39	317	1.51
40	340	1.09
41	340	1.09
42	337	1.475
43	337	1.475
44	469	1.4
45	469	1.4
46	469	1.4
47	367	1.08
48	469	1.4
49	367	1.08
50	469	1.4
51	367	1.08
52	469	1.4
53	367	1.08
54	317	1.51
55	340	1.09
56	340	1.09
57	340	1.09
58	268	1.529
59	340	1.09
60	340	1.09
61	337	1.475
62	340	1.09
63	340	1.09
64	340	1.09
65	337	1.475
66	367	1.08
67	427	1.381
68	268	1.529
69	340	1.09
70	340	1.09
71	340	1.09
72	340	1.09
73	337	1.449
74	400	1.49
75	490	1.335
76	570	1.229
77	434	1.01
78	434	1.01

#
# 1  

Angle Coeffs

1	70	109.8
2	63	112.4
3	63	112.4
4	63	112.4
5	70	109.8
6	63	120
7	35	120
8	63	120
9	85	120
10	63	120
11	35	120
12	85	120
13	63	120
14	35	120
15	63	120
16	85	120
17	63	120
18	35	120
19	85	120
20	35	120
21	35	120
22	70	115.5
23	80	120.4
24	50	121.9
25	35	119.8
26	58.35	112.7
27	37.5	110.7
28	37.5	110.7
29	38	118.4
30	37.5	110.7
31	37.5	110.7
32	80	109.7
33	37.5	110.7
34	37.5	110.7
35	51.65	110.58
36	37.5	110.7
37	37.5	110.7
38	63	112.4
39	63	112.4
40	35	130.7
41	70	120
42	70	109.8
43	35	130.7
44	70	120
45	63	112.4
46	70	109.8
47	63	112.4
48	35	130.7
49	70	120
50	63	112.4
51	70	120
52	70	120
53	70	120
54	70	120
55	63	112.4
56	35	109.5
57	35	109.5
58	80	111.2
59	63	120
60	35	120
61	63	120
62	35	120
63	63	120
64	63	120
65	35	120
66	63	120
67	35	120
68	35	120
69	63	120
70	70	120
71	35	120
72	70	120
73	35	109.5
74	35	109.5
75	80	111.2
76	35	120
77	35	120
78	35	109.5
79	35	109.5
80	35	109.5
81	58.35	112.7
82	37.5	110.7
83	37.5	110.7
84	63	112.4
85	35	130.7
86	70	120
87	37.5	110.7
88	37.5	110.7
89	51.65	110.58
90	37.5	110.7
91	37.5	110.7
92	80	109.7
93	37.5	110.7
94	37.5	110.7
95	50	121.9
96	38	118.4
97	35	119.8
98	35	120
99	35	120
100	70	115.5
101	80	120.4
102	35	120
103	35	120
104	33	107.8
105	35	109.5
106	35	109.5
107	33	107.8
108	33	107.8
109	35	109.5
110	35	121.6
111	35	109.5
112	35	121.6
113	35	120
114	35	120
115	35	121.6
116	33	107.8
117	35	109.5
118	35	109.5
119	35	109.5
120	35	109.5
121	33	107.8
122	35	109.5
123	33	107.8
124	33	107.8
125	33	107.8
126	33	107.8
127	33	107.8
128	35	109.5
129	33	107.8
130	35	109.5
131	35	109.5
132	35	121.6
133	35	109.5
134	33	107.8
135	33	107.8
136	35	109.5
137	35	109.5
138	70	120
139	80	122.9
140	80	122.9
141	70	120

#
# 1  C1-N1-C2
# 2  C1-N1-C3
# 3  C1-N2-C22
# 4  C1-N2-C4
# 5  C1-N2-C5
# 6  C10-C12-C14
# 7  C10-C12-H12
# 8  C10-C9-C11
# 9  C10-C9-C8
# 10  C11-C13-C14
# 11  C11-C13-H13
# 12  C11-C9-C8
# 13  C12-C10-C9
# 14  C12-C10-H10
# 15  C12-C14-C13
# 16  C12-C14-C15
# 17  C13-C11-C9
# 18  C13-C11-H11
# 19  C13-C14-C15
# 20  C14-C12-H12
# 21  C14-C13-H13
# 22  C14-C15-N4
# 23  C14-C15-O2
# 24  C15-N4-C16
# 25  C15-N4-H14
# 26  C16-C17-C18
# 27  C16-C17-H17
# 28  C16-C17-H18
# 29  C16-N4-H14
# 30  C17-C16-H15
# 31  C17-C16-H16
# 32  C17-C16-N4
# 33  C17-C18-H19
# 34  C17-C18-H20
# 35  C17-C18-N5
# 36  C18-C17-H17
# 37  C18-C17-H18
# 38  C18-N5-C19
# 39  C18-N5-C20
# 40  C19-C21-H23
# 41  C19-C21-N6
# 42  C19-N5-C20
# 43  C2-C5-H36
# 44  C2-C5-N2
# 45  C2-N1-C3
# 46  C20-N6-C21
# 47  C20-N6-C22
# 48  C21-C19-H21
# 49  C21-C19-N5
# 50  C21-N6-C22
# 51  C22-C23-C24
# 52  C22-C23-C25
# 53  C22-C28-C26
# 54  C22-C28-C27
# 55  C22-N2-C5
# 56  C23-C22-H24
# 57  C23-C22-H25
# 58  C23-C22-N6
# 59  C23-C24-C26
# 60  C23-C24-H26
# 61  C23-C25-C27
# 62  C23-C25-H27
# 63  C24-C23-C25
# 64  C24-C26-C28
# 65  C24-C26-H28
# 66  C25-C27-C28
# 67  C25-C27-H29
# 68  C26-C24-H26
# 69  C26-C28-C27
# 70  C26-C28-C29
# 71  C27-C25-H27
# 72  C27-C28-C29
# 73  C28-C22-H24
# 74  C28-C22-H25
# 75  C28-C22-N2
# 76  C28-C26-H28
# 77  C28-C27-H29
# 78  C28-C29-H30
# 79  C28-C29-H31
# 80  C28-C29-H32
# 81  C3-C6-C7
# 82  C3-C6-H5
# 83  C3-C6-H6
# 84  C4-N2-C5
# 85  C5-C2-H2
# 86  C5-C2-N1
# 87  C6-C3-H3
# 88  C6-C3-H4
# 89  C6-C3-N1
# 90  C6-C7-H7
# 91  C6-C7-H8
# 92  C6-C7-N3
# 93  C7-C6-H5
# 94  C7-C6-H6
# 95  C7-N3-C8
# 96  C7-N3-H9
# 97  C8-N3-H9
# 98  C9-C10-H10
# 99  C9-C11-H11
# 100  C9-C8-N3
# 101  C9-C8-O1
# 102  H1-C1-N1
# 103  H1-C1-N2
# 104  H15-C16-H16
# 105  H15-C16-N4
# 106  H16-C16-N4
# 107  H17-C17-H18
# 108  H19-C18-H20
# 109  H19-C18-N5
# 110  H2-C2-N1
# 111  H20-C18-N5
# 112  H21-C19-N5
# 113  H22-C20-N5
# 114  H22-C20-N6
# 115  H23-C21-N6
# 116  H24-C22-H25
# 117  H24-C22-N2
# 118  H24-C22-N6
# 119  H25-C22-N2
# 120  H25-C22-N6
# 121  H3-C3-H4
# 122  H3-C3-N1
# 123  H30-C29-H31
# 124  H30-C29-H32
# 125  H31-C29-H32
# 126  H33-C4-H34
# 127  H33-C4-H35
# 128  H33-C4-N2
# 129  H34-C4-H35
# 130  H34-C4-N2
# 131  H35-C4-N2
# 132  H36-C5-N2
# 133  H4-C3-N1
# 134  H5-C6-H6
# 135  H7-C7-H8
# 136  H7-C7-N3
# 137  H8-C7-N3
# 138  N1-C1-N2
# 139  N3-C8-O1
# 140  N4-C15-O2
# 141  N5-C20-N6

Dihedral Coeffs

1	0	7.25	0	0
2	0	7.25	0	0
3	0	7.25	0	0
4	0	7.25	0	0
5	0	7.25	0	0
6	0	7.25	0	0
7	0	1.1	0	0
8	0	2.1	0	0
9	0	7.25	0	0
10	0	7.25	0	0
11	0	1.1	0	0
12	0	2.1	0	0
13	2.3	6.089	0	0
14	0	4.9	0	0
15	0	0	0.3	0
16	0	0	0.3	0
17	2.392	-0.674	0.55	0
18	0	0.462	0	0
19	0	0	0	0
20	1	-0.35	0	0
21	-1	-0.35	0	0
22	0	5	0	0
23	0	5	0	0
24	0	5	0	0
25	0	5	0	0
26	0	5	0	0
27	0	5	0	0
28	0	5	0	0
29	0	7.25	0	0
30	0	7.25	0	0
31	0	7.25	0	0
32	0	7.25	0	0
33	0	0	0	0
34	0	0	0	0
35	0	7.25	0	0
36	0	7.25	0	0
37	0	7.25	0	0
38	0	7.25	0	0
39	0	7.25	0	0
40	0	7.25	0	0
41	0	7.25	0	0
42	0	7.25	0	0
43	0	7.25	0	0
44	0	7.25	0	0
45	0	7.25	0	0
46	0	7.25	0	0
47	0	7.25	0	0
48	0	7.25	0	0
49	0	0	0	0
50	0	0	0	0
51	0	0	0	0
52	0	0	0	0
53	0	0	0	0
54	0	0	0	0
55	0	0	0	0
56	0	0	0	0
57	0	0	0.3	0
58	0	0	0.3	0
59	0.845	-0.962	0.713	0
60	0	5	0	0
61	0	5	0	0
62	-1	-0.35	0	0
63	1	-0.35	0	0
64	0	0.462	0	0
65	0	0	0	0
66	0	7.25	0	0
67	0	7.25	0	0
68	0	7.25	0	0
69	0	7.25	0	0
70	2.3	6.089	0	0
71	0	4.9	0	0
72	0	10	0	0
73	0	10	0	0
74	0	10	0	0
75	0	10	0	0
76	0	10	0	0
77	0	7.25	0	0
78	0	7.25	0	0
79	0	7.25	0	0
80	0	7.25	0	0
81	0	7.25	0	0
82	0	7.25	0	0
83	0	7.25	0	0
84	0	7.25	0	0
85	0	7.25	0	0
86	0	7.25	0	0
87	0	7.25	0	0
88	0	7.25	0	0
89	0	0	0.3	0
90	0	0	0.3	0
91	0	0	0.3	0
92	0	0	0	0
93	0	0	0	0
94	0	0	0.3	0
95	0	0	0.3	0
96	0	0	0.3	0
97	0	0	0	0
98	0	0	0	0
99	0	0	0.3	0
100	0	0	0.3	0
101	-1.013	-0.709	0.473	0
102	0	0	0.3	0
103	0	0	0.3	0
104	-1.013	-0.709	0.473	0
105	0	0	0	0
106	0	0	0	0
107	0	10.75	0	0
108	0	10.75	0	0
109	0	5	0	0
110	0	5	0	0
111	0	0	0	0
112	0	0	0	0
113	0	10.75	0	0
114	0	10.75	0	0
115	0	5	0	0
116	0	5	0	0
117	0	10	0	0
118	0	10	0	0
119	0	10	0	0
120	0	10	0	0
121	0	5	0	0
122	0	5	0	0
123	0	0	0	0
124	0	0	0	0
125	0	0	0	0
126	0	0	0	0
127	0	0	0	0
128	0	0	0	0
129	0	0	0	0
130	0	0	0	0
131	0	0	0	0
132	0	0	0	0
133	0	0	0	0
134	0	0	0	0
135	0	0	0	0
136	0	0	0	0
137	0	0	0	0
138	0	0	0	0
139	0	7.25	0	0
140	0	7.25	0	0
141	0	7.25	0	0
142	0	7.25	0	0
143	0	7.25	0	0
144	0	7.25	0	0
145	0	7.25	0	0
146	0	7.25	0	0
147	0	7.25	0	0
148	0	7.25	0	0
149	0	0	0.3	0
150	0	0	0.3	0
151	0	0	0.3	0
152	0	0	0	0
153	0	0	0	0
154	0	0	0	0
155	0	0	0	0
156	0	0	0	0
157	0	0	0	0
158	0	0	0	0
159	0	0	0	0
160	0	5	0	0
161	0	5	0	0
162	0	5	0	0
163	0	0	0.3	0
164	0	0	0.3	0
165	0	0	0.3	0
166	0	0	0	0
167	0	0	0	0
168	0	0	0.3	0
169	0	0	0.3	0
170	0	0	0.464	0
171	0	0	0.3	0
172	0	0	0.3	0
173	0	0	0.464	0
174	0	0	0	0
175	0	0	0	0
176	0	0	0	0
177	0	0	0	0
178	0	10	0	0
179	0	10	0	0
180	0	10	0	0
181	0	10.75	0	0
182	0	10.75	0	0
183	2.392	-0.674	0.55	0
184	-1.013	-0.709	0.473	0
185	-1.013	-0.709	0.473	0
186	0	10	0	0
187	0	10	0	0
188	0	0	0	0
189	0	0	0	0
190	0	1.1	0	0
191	0	1.1	0	0
192	0.845	-0.962	0.713	0
193	0	0	0.464	0
194	0	0	0.464	0
195	0	10.75	0	0
196	0	10.75	0	0
197	0	10	0	0
198	0	10	0	0
199	0	10	0	0
200	0	10	0	0
201	0	0	0	0
202	0	0	0	0
203	0	2.1	0	0
204	0	2.1	0	0
205	0	6.089	0	0
206	0	4.9	0	0
207	0	6.089	0	0
208	0	4.9	0	0

#
# 1  C10-C12-C14-C13
# 2  C10-C12-C14-C15
# 3  C11-C13-C14-C12
# 4  C11-C13-C14-C15
# 5  C12-C10-C9-C11
# 6  C12-C10-C9-C8
# 7  C12-C14-C15-N4
# 8  C12-C14-C15-O2
# 9  C13-C11-C9-C10
# 10  C13-C11-C9-C8
# 11  C13-C14-C15-N4
# 12  C13-C14-C15-O2
# 13  C14-C15-N4-C16
# 14  C14-C15-N4-H14
# 15  C16-C17-C18-H19
# 16  C16-C17-C18-H20
# 17  C16-C17-C18-N5
# 18  C17-C16-N4-C15
# 19  C17-C16-N4-H14
# 20  C17-C18-N5-C19
# 21  C17-C18-N5-C20
# 22  C19-C21-N6-C20
# 23  C19-C21-N6-C22
# 24  C2-C5-N2-C1
# 25  C2-C5-N2-C22
# 26  C2-C5-N2-C4
# 27  C21-C19-N5-C18
# 28  C21-C19-N5-C20
# 29  C22-C23-C24-C26
# 30  C22-C23-C24-H26
# 31  C22-C23-C25-C27
# 32  C22-C23-C25-H27
# 33  C23-C22-N6-C20
# 34  C23-C22-N6-C21
# 35  C23-C24-C26-C28
# 36  C23-C24-C26-H28
# 37  C23-C25-C27-C28
# 38  C23-C25-C27-H29
# 39  C24-C23-C25-C27
# 40  C24-C23-C25-H27
# 41  C24-C26-C28-C22
# 42  C24-C26-C28-C27
# 43  C24-C26-C28-C29
# 44  C25-C23-C24-C26
# 45  C25-C23-C24-H26
# 46  C25-C27-C28-C22
# 47  C25-C27-C28-C26
# 48  C25-C27-C28-C29
# 49  C26-C28-C29-H30
# 50  C26-C28-C29-H31
# 51  C26-C28-C29-H32
# 52  C27-C28-C29-H30
# 53  C27-C28-C29-H31
# 54  C27-C28-C29-H32
# 55  C28-C22-N2-C1
# 56  C28-C22-N2-C5
# 57  C3-C6-C7-H7
# 58  C3-C6-C7-H8
# 59  C3-C6-C7-N3
# 60  C5-C2-N1-C1
# 61  C5-C2-N1-C3
# 62  C6-C3-N1-C1
# 63  C6-C3-N1-C2
# 64  C6-C7-N3-C8
# 65  C6-C7-N3-H9
# 66  C9-C10-C12-C14
# 67  C9-C10-C12-H12
# 68  C9-C11-C13-C14
# 69  C9-C11-C13-H13
# 70  C9-C8-N3-C7
# 71  C9-C8-N3-H9
# 72  H1-C1-N1-C2
# 73  H1-C1-N1-C3
# 74  H1-C1-N2-C22
# 75  H1-C1-N2-C4
# 76  H1-C1-N2-C5
# 77  H10-C10-C12-C14
# 78  H10-C10-C12-H12
# 79  H10-C10-C9-C11
# 80  H10-C10-C9-C8
# 81  H11-C11-C13-C14
# 82  H11-C11-C13-H13
# 83  H11-C11-C9-C10
# 84  H11-C11-C9-C8
# 85  H12-C12-C14-C13
# 86  H12-C12-C14-C15
# 87  H13-C13-C14-C12
# 88  H13-C13-C14-C15
# 89  H15-C16-C17-C18
# 90  H15-C16-C17-H17
# 91  H15-C16-C17-H18
# 92  H15-C16-N4-C15
# 93  H15-C16-N4-H14
# 94  H16-C16-C17-C18
# 95  H16-C16-C17-H17
# 96  H16-C16-C17-H18
# 97  H16-C16-N4-C15
# 98  H16-C16-N4-H14
# 99  H17-C17-C18-H19
# 100  H17-C17-C18-H20
# 101  H17-C17-C18-N5
# 102  H18-C17-C18-H19
# 103  H18-C17-C18-H20
# 104  H18-C17-C18-N5
# 105  H19-C18-N5-C19
# 106  H19-C18-N5-C20
# 107  H2-C2-C5-H36
# 108  H2-C2-C5-N2
# 109  H2-C2-N1-C1
# 110  H2-C2-N1-C3
# 111  H20-C18-N5-C19
# 112  H20-C18-N5-C20
# 113  H21-C19-C21-H23
# 114  H21-C19-C21-N6
# 115  H21-C19-N5-C18
# 116  H21-C19-N5-C20
# 117  H22-C20-N5-C18
# 118  H22-C20-N5-C19
# 119  H22-C20-N6-C21
# 120  H22-C20-N6-C22
# 121  H23-C21-N6-C20
# 122  H23-C21-N6-C22
# 123  H24-C22-C23-C24
# 124  H24-C22-C23-C25
# 125  H24-C22-C28-C26
# 126  H24-C22-C28-C27
# 127  H24-C22-N2-C1
# 128  H24-C22-N2-C5
# 129  H24-C22-N6-C20
# 130  H24-C22-N6-C21
# 131  H25-C22-C23-C24
# 132  H25-C22-C23-C25
# 133  H25-C22-C28-C26
# 134  H25-C22-C28-C27
# 135  H25-C22-N2-C1
# 136  H25-C22-N2-C5
# 137  H25-C22-N6-C20
# 138  H25-C22-N6-C21
# 139  H26-C24-C26-C28
# 140  H26-C24-C26-H28
# 141  H27-C25-C27-C28
# 142  H27-C25-C27-H29
# 143  H28-C26-C28-C22
# 144  H28-C26-C28-C27
# 145  H28-C26-C28-C29
# 146  H29-C27-C28-C22
# 147  H29-C27-C28-C26
# 148  H29-C27-C28-C29
# 149  H3-C3-C6-C7
# 150  H3-C3-C6-H5
# 151  H3-C3-C6-H6
# 152  H3-C3-N1-C1
# 153  H3-C3-N1-C2
# 154  H33-C4-N2-C1
# 155  H33-C4-N2-C5
# 156  H34-C4-N2-C1
# 157  H34-C4-N2-C5
# 158  H35-C4-N2-C1
# 159  H35-C4-N2-C5
# 160  H36-C5-N2-C1
# 161  H36-C5-N2-C22
# 162  H36-C5-N2-C4
# 163  H4-C3-C6-C7
# 164  H4-C3-C6-H5
# 165  H4-C3-C6-H6
# 166  H4-C3-N1-C1
# 167  H4-C3-N1-C2
# 168  H5-C6-C7-H7
# 169  H5-C6-C7-H8
# 170  H5-C6-C7-N3
# 171  H6-C6-C7-H7
# 172  H6-C6-C7-H8
# 173  H6-C6-C7-N3
# 174  H7-C7-N3-C8
# 175  H7-C7-N3-H9
# 176  H8-C7-N3-C8
# 177  H8-C7-N3-H9
# 178  N1-C1-N2-C22
# 179  N1-C1-N2-C4
# 180  N1-C1-N2-C5
# 181  N1-C2-C5-H36
# 182  N1-C2-C5-N2
# 183  N1-C3-C6-C7
# 184  N1-C3-C6-H5
# 185  N1-C3-C6-H6
# 186  N2-C1-N1-C2
# 187  N2-C1-N1-C3
# 188  N2-C22-C28-C26
# 189  N2-C22-C28-C27
# 190  N3-C8-C9-C10
# 191  N3-C8-C9-C11
# 192  N4-C16-C17-C18
# 193  N4-C16-C17-H17
# 194  N4-C16-C17-H18
# 195  N5-C19-C21-H23
# 196  N5-C19-C21-N6
# 197  N5-C20-N6-C21
# 198  N5-C20-N6-C22
# 199  N6-C20-N5-C18
# 200  N6-C20-N5-C19
# 201  N6-C22-C23-C24
# 202  N6-C22-C23-C25
# 203  O1-C8-C9-C10
# 204  O1-C8-C9-C11
# 205  O1-C8-N3-C7
# 206  O1-C8-N3-H9
# 207  O2-C15-N4-C16
# 208  O2-C15-N4-H14

 Masses

 1 12.010700 # C1
 2 12.010700 # C10
 3 12.010700 # C11
 4 12.010700 # C12
 5 12.010700 # C13
 6 12.010700 # C14
 7 12.010700 # C15
 8 12.010700 # C16
 9 12.010700 # C17
 10 12.010700 # C18
 11 12.010700 # C19
 12 12.010700 # C2
 13 12.010700 # C20
 14 12.010700 # C21
 15 12.010700 # C22
 16 12.010700 # C23
 17 12.010700 # C24
 18 12.010700 # C25
 19 12.010700 # C26
 20 12.010700 # C27
 21 12.010700 # C28
 22 12.010700 # C29
 23 12.010700 # C3
 24 12.010700 # C4
 25 12.010700 # C5
 26 12.010700 # C6
 27 12.010700 # C7
 28 12.010700 # C8
 29 12.010700 # C9
 30 1.007940 # H1
 31 1.007940 # H10
 32 1.007940 # H11
 33 1.007940 # H12
 34 1.007940 # H13
 35 1.007940 # H14
 36 1.007940 # H15
 37 1.007940 # H16
 38 1.007940 # H17
 39 1.007940 # H18
 40 1.007940 # H19
 41 1.007940 # H2
 42 1.007940 # H20
 43 1.007940 # H21
 44 1.007940 # H22
 45 1.007940 # H23
 46 1.007940 # H24
 47 1.007940 # H25
 48 1.007940 # H26
 49 1.007940 # H27
 50 1.007940 # H28
 51 1.007940 # H29
 52 1.007940 # H3
 53 1.007940 # H30
 54 1.007940 # H31
 55 1.007940 # H32
 56 1.007940 # H33
 57 1.007940 # H34
 58 1.007940 # H35
 59 1.007940 # H36
 60 1.007940 # H4
 61 1.007940 # H5
 62 1.007940 # H6
 63 1.007940 # H7
 64 1.007940 # H8
 65 1.007940 # H9
 66 14.006700 # N1
 67 14.006700 # N2
 68 14.006700 # N3
 69 14.006700 # N4
 70 14.006700 # N5
 71 14.006700 # N6
 72 15.999400 # O1
 73 15.999400 # O2

 Atoms # full

1 1 22 -0.187500 -6.085000 -0.160240 24.915470
2 1 53 0.098900 -6.399000 0.877780 24.769890
3 1 54 0.098900 -6.607000 -0.535680 25.801660
4 1 55 0.098900 -5.006000 -0.179610 25.101450
5 1 30 0.249400 1.000000 1.000000 0.000000
6 1 1 0.094500 -0.082000 1.000000 0.000000
7 1 66 -0.190400 -0.862000 1.000000 1.133260
8 1 67 -0.166300 -0.858000 1.001430 -1.130090
9 1 12 -0.058800 -2.179000 1.001700 0.669380
10 1 23 0.003400 -0.357000 1.106410 2.491080
11 1 15 0.065400 -0.401000 0.930410 -2.492810
12 1 25 -0.060800 -2.175000 0.999170 -0.681580
13 1 41 0.223100 -3.025000 1.003450 1.336110
14 1 26 -0.193900 -1.385000 0.718810 3.549920
15 1 52 0.132000 -0.022000 2.136010 2.666200
16 1 60 0.132000 0.526000 0.460820 2.592930
17 1 27 0.148500 -0.773000 0.741220 4.944330
18 1 61 0.104300 -2.235000 1.413210 3.517080
19 1 62 0.104300 -1.787000 -0.281440 3.341770
20 1 68 -0.990800 -1.777000 0.456650 5.951170
21 1 63 0.107900 -0.368000 1.733720 5.172100
22 1 64 0.107900 0.045000 0.015400 5.015990
23 1 28 0.583800 -1.487000 -0.266440 7.087980
24 1 65 0.458900 -2.666000 0.932180 5.879070
25 1 29 -0.104100 -2.618000 -0.479000 8.034380
26 1 72 -0.365100 -0.369000 -0.683970 7.363710
27 1 2 -0.076800 -2.329000 -0.607910 9.399740
28 1 3 -0.113500 -3.946000 -0.553550 7.597150
29 1 31 0.164900 -1.297000 -0.551470 9.742400
30 1 4 -0.110500 -3.360000 -0.807290 10.325320
31 1 32 0.136800 -4.195000 -0.499390 6.540950
32 1 5 -0.076300 -4.979000 -0.701930 8.527900
33 1 33 0.137500 -3.107000 -0.859850 11.380550
34 1 6 -0.102000 -4.688000 -0.878750 9.887630
35 1 34 0.165900 -6.014000 -0.680240 8.187430
36 1 7 0.582100 -5.826000 -1.081220 10.827280
37 1 69 -0.987400 -5.551000 -1.747280 12.003740
38 1 73 -0.368400 -6.941000 -0.662310 10.532950
39 1 8 0.146100 -6.590000 -1.992390 12.983640
40 1 35 0.458400 -4.658000 -2.206330 12.122090
41 1 9 -0.191600 -6.015000 -2.110950 14.388860
42 1 36 0.106200 -7.327000 -1.181780 12.937440
43 1 37 0.106200 -7.094000 -2.921210 12.692480
44 1 10 0.006600 -7.135000 -2.240410 15.419540
45 1 38 0.104600 -5.405000 -1.225990 14.610160
46 1 39 0.104600 -5.345000 -2.978770 14.436660
47 1 70 -0.203800 -6.661000 -2.503940 16.766590
48 1 40 0.130400 -7.732000 -1.320720 15.426170
49 1 42 0.130400 -7.804000 -3.055260 15.116910
50 1 11 -0.064500 -5.378000 -2.393580 17.303110
51 1 13 0.094100 -7.462000 -2.885030 17.817590
52 1 43 0.221000 -4.532000 -2.071730 16.715690
53 1 14 -0.052000 -5.409000 -2.746290 18.605860
54 1 44 0.247200 -8.527000 -3.066670 17.738480
55 1 71 -0.161700 -6.734000 -3.005180 18.974230
56 1 45 0.231900 -4.598000 -2.836420 19.312310
57 1 15 0.065400 -7.228000 -3.484830 20.252560
58 1 16 -0.153200 -6.902000 -2.594040 21.435160
59 1 46 0.155500 -8.319000 -3.596790 20.216490
60 1 47 0.155500 -6.807000 -4.483210 20.424870
61 1 17 -0.099200 -6.831000 -3.167010 22.715460
62 1 18 -0.117500 -6.741000 -1.206120 21.316630
63 1 48 0.139200 -6.966000 -4.238150 22.843940
64 1 19 -0.114200 -6.587000 -2.377220 23.842140
65 1 49 0.119200 -6.809000 -0.730480 20.340080
66 1 20 -0.119100 -6.491000 -0.416310 22.443590
67 1 50 0.156000 -6.536000 -2.847950 24.820760
68 1 21 -0.028000 -6.412000 -0.995780 23.713930
69 1 51 0.149100 -6.361000 0.656380 22.316810
70 1 46 0.155500 -0.087000 -0.090440 -2.137330
71 1 47 0.155500 0.449000 1.602970 -2.652400
72 1 59 0.228600 -3.005000 0.997080 -1.370730
73 1 30 0.249400 6.684000 2.090650 -27.408280
74 1 1 0.094500 5.602000 2.090650 -27.408280
75 1 66 -0.190400 4.822000 2.090650 -26.275020
76 1 67 -0.166300 4.826000 2.092080 -28.538370
77 1 12 -0.058800 3.505000 2.092350 -26.738900
78 1 23 0.003400 5.327000 2.197060 -24.917200
79 1 24 -0.071000 5.283000 2.021060 -29.901090
80 1 25 -0.060800 3.509000 2.089820 -28.089860
81 1 41 0.223100 2.659000 2.094100 -26.072170
82 1 26 -0.193900 4.299000 1.809460 -23.858360
83 1 52 0.132000 5.662000 3.226660 -24.742080
84 1 60 0.132000 6.210000 1.551470 -24.815350
85 1 27 0.148500 4.911000 1.831870 -22.463950
86 1 61 0.104300 3.449000 2.503860 -23.891200
87 1 62 0.104300 3.897000 0.809210 -24.066510
88 1 68 -0.990800 3.907000 1.547300 -21.457110
89 1 63 0.107900 5.316000 2.824370 -22.236180
90 1 64 0.107900 5.729000 1.106050 -22.392290
91 1 28 0.583800 4.197000 0.824210 -20.320300
92 1 65 0.458900 3.018000 2.022830 -21.529210
93 1 29 -0.104100 3.066000 0.611650 -19.373900
94 1 72 -0.365100 5.315000 0.406680 -20.044570
95 1 2 -0.076800 3.355000 0.482740 -18.008540
96 1 3 -0.113500 1.738000 0.537100 -19.811130
97 1 31 0.164900 4.387000 0.539180 -17.665880
98 1 4 -0.110500 2.324000 0.283360 -17.082960
99 1 32 0.136800 1.489000 0.591260 -20.867330
100 1 5 -0.076300 0.705000 0.388720 -18.880380
101 1 33 0.137500 2.577000 0.230800 -16.027730
102 1 6 -0.102000 0.996000 0.211900 -17.520650
103 1 34 0.165900 -0.330000 0.410410 -19.220850
104 1 7 0.582100 -0.142000 0.009430 -16.581000
105 1 69 -0.987400 0.133000 -0.656630 -15.404540
106 1 73 -0.368400 -1.257000 0.428340 -16.875330
107 1 8 0.146100 -0.906000 -0.901740 -14.424640
108 1 35 0.458400 1.026000 -1.115680 -15.286190
109 1 9 -0.191600 -0.331000 -1.020300 -13.019420
110 1 36 0.106200 -1.643000 -0.091130 -14.470840
111 1 37 0.106200 -1.410000 -1.830560 -14.715800
112 1 10 0.006600 -1.451000 -1.149760 -11.988740
113 1 38 0.104600 0.279000 -0.135340 -12.798120
114 1 39 0.104600 0.339000 -1.888120 -12.971620
115 1 70 -0.203800 -0.977000 -1.413290 -10.641690
116 1 40 0.130400 -2.048000 -0.230070 -11.982110
117 1 42 0.130400 -2.120000 -1.964610 -12.291370
118 1 11 -0.064500 0.306000 -1.302930 -10.105170
119 1 13 0.094100 -1.778000 -1.794380 -9.590690
120 1 43 0.221000 1.152000 -0.981080 -10.692590
121 1 14 -0.052000 0.275000 -1.655640 -8.802420
122 1 44 0.247200 -2.843000 -1.976020 -9.669800
123 1 71 -0.161700 -1.050000 -1.914530 -8.434050
124 1 45 0.231900 1.086000 -1.745770 -8.095970
125 1 15 0.065400 -1.544000 -2.394180 -7.155720
126 1 16 -0.153200 -1.218000 -1.503390 -5.973120
127 1 46 0.155500 -2.635000 -2.506140 -7.191790
128 1 47 0.155500 -1.123000 -3.392560 -6.983410
129 1 17 -0.099200 -1.147000 -2.076360 -4.692820
130 1 18 -0.117500 -1.057000 -0.115470 -6.091650
131 1 48 0.139200 -1.282000 -3.147500 -4.564340
132 1 19 -0.114200 -0.903000 -1.286570 -3.566140
133 1 49 0.119200 -1.125000 0.360170 -7.068200
134 1 20 -0.119100 -0.807000 0.674340 -4.964690
135 1 50 0.156000 -0.852000 -1.757300 -2.587520
136 1 21 -0.028000 -0.728000 0.094870 -3.694350
137 1 51 0.149100 -0.677000 1.747030 -5.091470
138 1 57 0.112800 5.597000 1.000210 -30.145610
139 1 58 0.112800 6.133000 2.693620 -30.060680
140 1 59 0.228600 2.679000 2.087730 -28.779010
141 1 56 0.112800 4.492000 2.311380 -30.599860  

 Bonds

1 54 1 68
2 55 1 2
3 57 1 4
4 56 1 3
5 1 5 6
6 2 6 7
7 3 6 8
8 32 7 9
9 61 7 10
10 42 8 11
11 67 8 12
12 30 9 12
13 31 9 13
14 60 10 16
15 59 10 15
16 58 10 14
17 39 11 136
18 40 11 70
19 41 11 71
20 66 12 72
21 69 14 18
22 70 14 19
23 68 14 17
24 73 17 20
25 72 17 22
26 71 17 21
27 75 20 23
28 78 20 24
29 76 23 26
30 74 23 25
31 8 25 28
32 5 25 27
33 6 27 29
34 4 27 30
35 9 28 31
36 7 28 32
37 11 30 33
38 10 30 34
39 12 32 34
40 13 32 35
41 14 34 36
42 15 36 37
43 16 36 38
44 77 37 40
45 20 37 39
46 19 39 43
47 18 39 42
48 17 39 41
49 23 41 46
50 22 41 45
51 21 41 44
52 25 44 49
53 24 44 48
54 26 44 47
55 34 47 51
56 29 47 50
57 28 50 52
58 27 50 53
59 33 51 54
60 35 51 55
61 36 53 56
62 37 53 55
63 43 55 57
64 40 57 59
65 38 57 58
66 41 57 60
67 45 58 62
68 44 58 61
69 47 61 63
70 46 61 64
71 49 62 65
72 48 62 66
73 50 64 68
74 51 64 67
75 53 66 69
76 52 66 68
77 1 73 74
78 3 74 76
79 2 74 75
80 61 75 78
81 32 75 77
82 65 76 79
83 67 76 80
84 30 77 80
85 31 77 81
86 59 78 83
87 58 78 82
88 60 78 84
89 63 79 138
90 62 79 141
91 64 79 139
92 66 80 140
93 70 82 87
94 68 82 85
95 69 82 86
96 71 85 89
97 73 85 88
98 72 85 90
99 75 88 91
100 78 88 92
101 76 91 94
102 74 91 93
103 8 93 96
104 5 93 95
105 4 95 98
106 6 95 97
107 9 96 99
108 7 96 100
109 11 98 101
110 10 98 102
111 13 100 103
112 12 100 102
113 14 102 104
114 15 104 105
115 16 104 106
116 77 105 108
117 20 105 107
118 19 107 111
119 18 107 110
120 17 107 109
121 23 109 114
122 22 109 113
123 21 109 112
124 25 112 117
125 26 112 115
126 24 112 116
127 34 115 119
128 29 115 118
129 28 118 120
130 27 118 121
131 35 119 123
132 33 119 122
133 36 121 124
134 37 121 123
135 43 123 125
136 41 125 128
137 38 125 126
138 40 125 127
139 44 126 129
140 45 126 130
141 47 129 131
142 46 129 132
143 49 130 133
144 48 130 134
145 51 132 135
146 50 132 136
147 53 134 137
148 52 134 136

 Angles

1 79 3 1 68
2 123 2 1 3
3 125 3 1 4
4 78 2 1 68
5 80 4 1 68
6 124 2 1 4
7 102 5 6 7
8 103 5 6 8
9 138 7 6 8
10 45 9 7 10
11 1 6 7 9
12 2 6 7 10
13 55 11 8 12
14 3 6 8 11
15 5 6 8 12
16 110 7 9 13
17 86 7 9 12
18 85 12 9 13
19 133 7 10 16
20 122 7 10 15
21 89 7 10 14
22 121 15 10 16
23 88 14 10 16
24 87 14 10 15
25 73 70 11 136
26 74 71 11 136
27 75 8 11 136
28 116 70 11 71
29 117 8 11 70
30 119 8 11 71
31 44 8 12 9
32 132 8 12 72
33 43 9 12 72
34 134 18 14 19
35 82 10 14 18
36 93 17 14 18
37 83 10 14 19
38 94 17 14 19
39 81 10 14 17
40 92 14 17 20
41 91 14 17 22
42 90 14 17 21
43 137 20 17 22
44 136 20 17 21
45 135 21 17 22
46 95 17 20 23
47 96 17 20 24
48 97 23 20 24
49 101 25 23 26
50 139 20 23 26
51 100 20 23 25
52 12 23 25 28
53 8 27 25 28
54 9 23 25 27
55 14 29 27 30
56 98 25 27 29
57 13 25 27 30
58 99 25 28 31
59 17 25 28 32
60 18 31 28 32
61 6 27 30 34
62 7 27 30 33
63 20 33 30 34
64 21 34 32 35
65 10 28 32 34
66 11 28 32 35
67 19 32 34 36
68 15 30 34 32
69 16 30 34 36
70 22 34 36 37
71 23 34 36 38
72 140 37 36 38
73 25 36 37 40
74 24 36 37 39
75 29 39 37 40
76 106 37 39 43
77 104 42 39 43
78 31 41 39 43
79 105 37 39 42
80 32 37 39 41
81 30 41 39 42
82 36 44 41 45
83 107 45 41 46
84 27 39 41 45
85 37 44 41 46
86 26 39 41 44
87 28 39 41 46
88 33 41 44 48
89 109 47 44 48
90 108 48 44 49
91 35 41 44 47
92 34 41 44 49
93 111 47 44 49
94 42 50 47 51
95 39 44 47 51
96 38 44 47 50
97 112 47 50 52
98 49 47 50 53
99 48 52 50 53
100 113 47 51 54
101 141 47 51 55
102 114 54 51 55
103 115 55 53 56
104 40 50 53 56
105 41 50 53 55
106 47 51 55 57
107 46 51 55 53
108 50 53 55 57
109 118 55 57 59
110 58 55 57 58
111 120 55 57 60
112 56 58 57 59
113 116 59 57 60
114 57 58 57 60
115 52 57 58 62
116 51 57 58 61
117 63 61 58 62
118 68 63 61 64
119 60 58 61 63
120 59 58 61 64
121 71 65 62 66
122 62 58 62 65
123 61 58 62 66
124 64 61 64 68
125 65 61 64 67
126 76 67 64 68
127 67 62 66 69
128 77 68 66 69
129 66 62 66 68
130 70 1 68 64
131 72 1 68 66
132 69 64 68 66
133 103 73 74 76
134 138 75 74 76
135 102 73 74 75
136 2 74 75 78
137 45 77 75 78
138 1 74 75 77
139 4 74 76 79
140 84 79 76 80
141 5 74 76 80
142 85 80 77 81
143 86 75 77 80
144 110 75 77 81
145 122 75 78 83
146 89 75 78 82
147 133 75 78 84
148 87 82 78 83
149 121 83 78 84
150 88 82 78 84
151 127 139 79 141
152 128 76 79 141
153 126 138 79 141
154 131 76 79 139
155 129 138 79 139
156 130 76 79 138
157 43 77 80 140
158 132 76 80 140
159 44 76 80 77
160 83 78 82 87
161 94 85 82 87
162 134 86 82 87
163 81 78 82 85
164 82 78 82 86
165 93 85 82 86
166 90 82 85 89
167 92 82 85 88
168 91 82 85 90
169 136 88 85 89
170 135 89 85 90
171 137 88 85 90
172 97 91 88 92
173 96 85 88 92
174 95 85 88 91
175 139 88 91 94
176 100 88 91 93
177 101 93 91 94
178 12 91 93 96
179 8 95 93 96
180 9 91 93 95
181 14 97 95 98
182 13 93 95 98
183 98 93 95 97
184 99 93 96 99
185 18 99 96 100
186 17 93 96 100
187 7 95 98 101
188 6 95 98 102
189 20 101 98 102
190 11 96 100 103
191 21 102 100 103
192 10 96 100 102
193 16 98 102 104
194 19 100 102 104
195 15 98 102 100
196 22 102 104 105
197 23 102 104 106
198 140 105 104 106
199 29 107 105 108
200 25 104 105 108
201 24 104 105 107
202 106 105 107 111
203 104 110 107 111
204 31 109 107 111
205 105 105 107 110
206 32 105 107 109
207 30 109 107 110
208 28 107 109 114
209 27 107 109 113
210 26 107 109 112
211 107 113 109 114
212 37 112 109 114
213 36 112 109 113
214 109 115 112 116
215 35 109 112 115
216 111 115 112 117
217 33 109 112 116
218 108 116 112 117
219 34 109 112 117
220 39 112 115 119
221 38 112 115 118
222 42 118 115 119
223 49 115 118 121
224 112 115 118 120
225 48 120 118 121
226 141 115 119 123
227 113 115 119 122
228 114 122 119 123
229 40 118 121 124
230 41 118 121 123
231 115 123 121 124
232 46 119 123 121
233 47 119 123 125
234 50 121 123 125
235 116 127 125 128
236 120 123 125 128
237 57 126 125 128
238 118 123 125 127
239 56 126 125 127
240 58 123 125 126
241 63 129 126 130
242 51 125 126 129
243 52 125 126 130
244 59 126 129 132
245 60 126 129 131
246 68 131 129 132
247 62 126 130 133
248 61 126 130 134
249 71 133 130 134
250 65 129 132 135
251 64 129 132 136
252 76 135 132 136
253 67 130 134 137
254 66 130 134 136
255 77 136 134 137
256 53 11 136 132
257 54 11 136 134
258 69 132 136 134

 Dihedrals

1 50 3 1 68 64
2 53 3 1 68 66
3 49 2 1 68 64
4 52 2 1 68 66
5 51 4 1 68 64
6 54 4 1 68 66
7 72 5 6 7 9
8 73 5 6 7 10
9 186 8 6 7 9
10 187 8 6 7 10
11 74 5 6 8 11
12 76 5 6 8 12
13 178 7 6 8 11
14 180 7 6 8 12
15 110 10 7 9 13
16 61 10 7 9 12
17 109 6 7 9 13
18 60 6 7 9 12
19 167 9 7 10 16
20 153 9 7 10 15
21 63 9 7 10 14
22 166 6 7 10 16
23 152 6 7 10 15
24 62 6 7 10 14
25 56 12 8 11 136
26 128 12 8 11 70
27 136 12 8 11 71
28 55 6 8 11 136
29 127 6 8 11 70
30 135 6 8 11 71
31 25 11 8 12 9
32 161 11 8 12 72
33 24 6 8 12 9
34 160 6 8 12 72
35 182 7 9 12 8
36 181 7 9 12 72
37 108 13 9 12 8
38 107 13 9 12 72
39 184 7 10 14 18
40 185 7 10 14 19
41 183 7 10 14 17
42 164 16 10 14 18
43 165 16 10 14 19
44 163 16 10 14 17
45 150 15 10 14 18
46 151 15 10 14 19
47 149 15 10 14 17
48 125 70 11 136 132
49 126 70 11 136 134
50 133 71 11 136 132
51 134 71 11 136 134
52 188 8 11 136 132
53 189 8 11 136 134
54 170 18 14 17 20
55 169 18 14 17 22
56 168 18 14 17 21
57 173 19 14 17 20
58 172 19 14 17 22