LAMMPS data file. CGCMM style. atom_style full generated by VMD/TopoTools v1.7 on Tue Apr 25 19:54:19 -0400 2023
 549 atoms
 580 bonds
 1014 angles
 1504 dihedrals
 0 impropers
 73 atom types
 78 bond types
 141 angle types
 208 dihedral types
 0 improper types
 -30.00000 30.00000  xlo xhi
 -10.00000 10.00000  ylo yhi
 -150.0000 150.0000  zlo zhi

Pair Coeffs

1 0.070000 3.550000
2 0.070000 3.550000
3 0.070000 3.550000
4 0.070000 3.550000
5 0.070000 3.550000
6 0.070000 3.550000
7 0.070000 3.550000
8 0.066000 3.500000
9 0.066000 3.500000
10 0.066000 3.500000
11 0.070000 3.550000
12 0.070000 3.550000
13 0.070000 3.550000
14 0.070000 3.550000
15 0.066000 3.500000
16 0.070000 3.550000
17 0.070000 3.550000
18 0.070000 3.550000
19 0.070000 3.550000
20 0.070000 3.550000
21 0.070000 3.550000
22 0.066000 3.500000
23 0.066000 3.500000
24 0.066000 3.500000
25 0.070000 3.550000
26 0.066000 3.500000
27 0.066000 3.500000
28 0.070000 3.550000
29 0.070000 3.550000
30 0.030000 2.420000
31 0.030000 2.420000
32 0.030000 2.420000
33 0.030000 2.420000
34 0.030000 2.420000
35 0.000000 0.000000
36 0.030000 2.500000
37 0.030000 2.500000
38 0.030000 2.500000
39 0.030000 2.500000
40 0.030000 2.500000
41 0.030000 2.420000
42 0.030000 2.500000
43 0.030000 2.420000
44 0.030000 2.420000
45 0.030000 2.420000
46 0.030000 2.500000
47 0.030000 2.500000
48 0.030000 2.420000
49 0.030000 2.420000
50 0.030000 2.420000
51 0.030000 2.420000
52 0.030000 2.500000
53 0.030000 2.500000
54 0.030000 2.500000
55 0.030000 2.500000
56 0.030000 2.500000
57 0.030000 2.500000
58 0.030000 2.500000
59 0.030000 2.420000
60 0.030000 2.500000
61 0.030000 2.500000
62 0.030000 2.500000
63 0.030000 2.500000
64 0.030000 2.500000
65 0.000000 0.000000
66 0.170000 3.250000
67 0.170000 3.250000
68 0.170000 3.250000
69 0.170000 3.250000
70 0.170000 3.250000
71 0.170000 3.250000
72 0.210000 2.960000
73 0.210000 2.960000

# 1  C1
# 2  C10
# 3  C11
# 4  C12
# 5  C13
# 6  C14
# 7  C15
# 8  C16
# 9  C17
# 10  C18
# 11  C19
# 12  C2
# 13  C20
# 14  C21
# 15  C22
# 16  C23
# 17  C24
# 18  C25
# 19  C26
# 20  C27
# 21  C28
# 22  C29
# 23  C3
# 24  C4
# 25  C5
# 26  C6
# 27  C7
# 28  C8
# 29  C9
# 30  H1
# 31  H10
# 32  H11
# 33  H12
# 34  H13
# 35  H14
# 36  H15
# 37  H16
# 38  H17
# 39  H18
# 40  H19
# 41  H2
# 42  H20
# 43  H21
# 44  H22
# 45  H23
# 46  H24
# 47  H25
# 48  H26
# 49  H27
# 50  H28
# 51  H29
# 52  H3
# 53  H30
# 54  H31
# 55  H32
# 56  H33
# 57  H34
# 58  H35
# 59  H36
# 60  H4
# 61  H5
# 62  H6
# 63  H7
# 64  H8
# 65  H9
# 66  N1
# 67  N2
# 68  N3
# 69  N4
# 70  N5
# 71  N6
# 72  O1
# 73  O2

Bond Coeffs

1	367	1.08
2	477	1.343
3	477	1.343
4	469	1.4
5	469	1.4
6	367	1.08
7	469	1.4
8	340	1.09
9	367	1.08
10	469	1.4
11	367	1.08
12	469	1.4
13	367	1.08
14	400	1.49
15	490	1.335
16	570	1.229
17	268	1.529
18	340	1.09
19	340	1.09
20	337	1.449
21	268	1.529
22	340	1.09
23	340	1.09
24	340	1.09
25	340	1.09
26	337	1.475
27	512	1.375
28	367	1.08
29	427	1.381
30	512	1.375
31	367	1.08
32	427	1.381
33	367	1.08
34	477	1.343
35	477	1.343
36	367	1.08
37	427	1.381
38	317	1.51
39	317	1.51
40	340	1.09
41	340	1.09
42	337	1.475
43	337	1.475
44	469	1.4
45	469	1.4
46	469	1.4
47	367	1.08
48	469	1.4
49	367	1.08
50	469	1.4
51	367	1.08
52	469	1.4
53	367	1.08
54	317	1.51
55	340	1.09
56	340	1.09
57	340	1.09
58	268	1.529
59	340	1.09
60	340	1.09
61	337	1.475
62	340	1.09
63	340	1.09
64	340	1.09
65	337	1.475
66	367	1.08
67	427	1.381
68	268	1.529
69	340	1.09
70	340	1.09
71	340	1.09
72	340	1.09
73	337	1.449
74	400	1.49
75	490	1.335
76	570	1.229
77	434	1.01
78	434	1.01  

Angle Coeffs

1	70	109.8
2	63	112.4
3	63	112.4
4	63	112.4
5	70	109.8
6	63	120
7	35	120
8	63	120
9	85	120
10	63	120
11	35	120
12	85	120
13	63	120
14	35	120
15	63	120
16	85	120
17	63	120
18	35	120
19	85	120
20	35	120
21	35	120
22	70	115.5
23	80	120.4
24	50	121.9
25	35	119.8
26	58.35	112.7
27	37.5	110.7
28	37.5	110.7
29	38	118.4
30	37.5	110.7
31	37.5	110.7
32	80	109.7
33	37.5	110.7
34	37.5	110.7
35	51.65	110.58
36	37.5	110.7
37	37.5	110.7
38	63	112.4
39	63	112.4
40	35	130.7
41	70	120
42	70	109.8
43	35	130.7
44	70	120
45	63	112.4
46	70	109.8
47	63	112.4
48	35	130.7
49	70	120
50	63	112.4
51	70	120
52	70	120
53	70	120
54	70	120
55	63	112.4
56	35	109.5
57	35	109.5
58	80	111.2
59	63	120
60	35	120
61	63	120
62	35	120
63	63	120
64	63	120
65	35	120
66	63	120
67	35	120
68	35	120
69	63	120
70	70	120
71	35	120
72	70	120
73	35	109.5
74	35	109.5
75	80	111.2
76	35	120
77	35	120
78	35	109.5
79	35	109.5
80	35	109.5
81	58.35	112.7
82	37.5	110.7
83	37.5	110.7
84	63	112.4
85	35	130.7
86	70	120
87	37.5	110.7
88	37.5	110.7
89	51.65	110.58
90	37.5	110.7
91	37.5	110.7
92	80	109.7
93	37.5	110.7
94	37.5	110.7
95	50	121.9
96	38	118.4
97	35	119.8
98	35	120
99	35	120
100	70	115.5
101	80	120.4
102	35	120
103	35	120
104	33	107.8
105	35	109.5
106	35	109.5
107	33	107.8
108	33	107.8
109	35	109.5
110	35	121.6
111	35	109.5
112	35	121.6
113	35	120
114	35	120
115	35	121.6
116	33	107.8
117	35	109.5
118	35	109.5
119	35	109.5
120	35	109.5
121	33	107.8
122	35	109.5
123	33	107.8
124	33	107.8
125	33	107.8
126	33	107.8
127	33	107.8
128	35	109.5
129	33	107.8
130	35	109.5
131	35	109.5
132	35	121.6
133	35	109.5
134	33	107.8
135	33	107.8
136	35	109.5
137	35	109.5
138	70	120
139	80	122.9
140	80	122.9
141	70	120

# 1  C1-N1-C2
# 2  C1-N1-C3
# 3  C1-N2-C22
# 4  C1-N2-C4
# 5  C1-N2-C5
# 6  C10-C12-C14
# 7  C10-C12-H12
# 8  C10-C9-C11
# 9  C10-C9-C8
# 10  C11-C13-C14
# 11  C11-C13-H13
# 12  C11-C9-C8
# 13  C12-C10-C9
# 14  C12-C10-H10
# 15  C12-C14-C13
# 16  C12-C14-C15
# 17  C13-C11-C9
# 18  C13-C11-H11
# 19  C13-C14-C15
# 20  C14-C12-H12
# 21  C14-C13-H13
# 22  C14-C15-N4
# 23  C14-C15-O2
# 24  C15-N4-C16
# 25  C15-N4-H14
# 26  C16-C17-C18
# 27  C16-C17-H17
# 28  C16-C17-H18
# 29  C16-N4-H14
# 30  C17-C16-H15
# 31  C17-C16-H16
# 32  C17-C16-N4
# 33  C17-C18-H19
# 34  C17-C18-H20
# 35  C17-C18-N5
# 36  C18-C17-H17
# 37  C18-C17-H18
# 38  C18-N5-C19
# 39  C18-N5-C20
# 40  C19-C21-H23
# 41  C19-C21-N6
# 42  C19-N5-C20
# 43  C2-C5-H36
# 44  C2-C5-N2
# 45  C2-N1-C3
# 46  C20-N6-C21
# 47  C20-N6-C22
# 48  C21-C19-H21
# 49  C21-C19-N5
# 50  C21-N6-C22
# 51  C22-C23-C24
# 52  C22-C23-C25
# 53  C22-C28-C26
# 54  C22-C28-C27
# 55  C22-N2-C5
# 56  C23-C22-H24
# 57  C23-C22-H25
# 58  C23-C22-N6
# 59  C23-C24-C26
# 60  C23-C24-H26
# 61  C23-C25-C27
# 62  C23-C25-H27
# 63  C24-C23-C25
# 64  C24-C26-C28
# 65  C24-C26-H28
# 66  C25-C27-C28
# 67  C25-C27-H29
# 68  C26-C24-H26
# 69  C26-C28-C27
# 70  C26-C28-C29
# 71  C27-C25-H27
# 72  C27-C28-C29
# 73  C28-C22-H24
# 74  C28-C22-H25
# 75  C28-C22-N2
# 76  C28-C26-H28
# 77  C28-C27-H29
# 78  C28-C29-H30
# 79  C28-C29-H31
# 80  C28-C29-H32
# 81  C3-C6-C7
# 82  C3-C6-H5
# 83  C3-C6-H6
# 84  C4-N2-C5
# 85  C5-C2-H2
# 86  C5-C2-N1
# 87  C6-C3-H3
# 88  C6-C3-H4
# 89  C6-C3-N1
# 90  C6-C7-H7
# 91  C6-C7-H8
# 92  C6-C7-N3
# 93  C7-C6-H5
# 94  C7-C6-H6
# 95  C7-N3-C8
# 96  C7-N3-H9
# 97  C8-N3-H9
# 98  C9-C10-H10
# 99  C9-C11-H11
# 100  C9-C8-N3
# 101  C9-C8-O1
# 102  H1-C1-N1
# 103  H1-C1-N2
# 104  H15-C16-H16
# 105  H15-C16-N4
# 106  H16-C16-N4
# 107  H17-C17-H18
# 108  H19-C18-H20
# 109  H19-C18-N5
# 110  H2-C2-N1
# 111  H20-C18-N5
# 112  H21-C19-N5
# 113  H22-C20-N5
# 114  H22-C20-N6
# 115  H23-C21-N6
# 116  H24-C22-H25
# 117  H24-C22-N2
# 118  H24-C22-N6
# 119  H25-C22-N2
# 120  H25-C22-N6
# 121  H3-C3-H4
# 122  H3-C3-N1
# 123  H30-C29-H31
# 124  H30-C29-H32
# 125  H31-C29-H32
# 126  H33-C4-H34
# 127  H33-C4-H35
# 128  H33-C4-N2
# 129  H34-C4-H35
# 130  H34-C4-N2
# 131  H35-C4-N2
# 132  H36-C5-N2
# 133  H4-C3-N1
# 134  H5-C6-H6
# 135  H7-C7-H8
# 136  H7-C7-N3
# 137  H8-C7-N3
# 138  N1-C1-N2
# 139  N3-C8-O1
# 140  N4-C15-O2
# 141  N5-C20-N6

Dihedral Coeffs

1	0	7.25	0	0
2	0	7.25	0	0
3	0	7.25	0	0
4	0	7.25	0	0
5	0	7.25	0	0
6	0	7.25	0	0
7	0	1.1	0	0
8	0	2.1	0	0
9	0	7.25	0	0
10	0	7.25	0	0
11	0	1.1	0	0
12	0	2.1	0	0
13	2.3	6.089	0	0
14	0	4.9	0	0
15	0	0	0.3	0
16	0	0	0.3	0
17	2.392	-0.674	0.55	0
18	0	0.462	0	0
19	0	0	0	0
20	1	-0.35	0	0
21	-1	-0.35	0	0
22	0	5	0	0
23	0	5	0	0
24	0	5	0	0
25	0	5	0	0
26	0	5	0	0
27	0	5	0	0
28	0	5	0	0
29	0	7.25	0	0
30	0	7.25	0	0
31	0	7.25	0	0
32	0	7.25	0	0
33	0	0	0	0
34	0	0	0	0
35	0	7.25	0	0
36	0	7.25	0	0
37	0	7.25	0	0
38	0	7.25	0	0
39	0	7.25	0	0
40	0	7.25	0	0
41	0	7.25	0	0
42	0	7.25	0	0
43	0	7.25	0	0
44	0	7.25	0	0
45	0	7.25	0	0
46	0	7.25	0	0
47	0	7.25	0	0
48	0	7.25	0	0
49	0	0	0	0
50	0	0	0	0
51	0	0	0	0
52	0	0	0	0
53	0	0	0	0
54	0	0	0	0
55	0	0	0	0
56	0	0	0	0
57	0	0	0.3	0
58	0	0	0.3	0
59	0.845	-0.962	0.713	0
60	0	5	0	0
61	0	5	0	0
62	-1	-0.35	0	0
63	1	-0.35	0	0
64	0	0.462	0	0
65	0	0	0	0
66	0	7.25	0	0
67	0	7.25	0	0
68	0	7.25	0	0
69	0	7.25	0	0
70	2.3	6.089	0	0
71	0	4.9	0	0
72	0	10	0	0
73	0	10	0	0
74	0	10	0	0
75	0	10	0	0
76	0	10	0	0
77	0	7.25	0	0
78	0	7.25	0	0
79	0	7.25	0	0
80	0	7.25	0	0
81	0	7.25	0	0
82	0	7.25	0	0
83	0	7.25	0	0
84	0	7.25	0	0
85	0	7.25	0	0
86	0	7.25	0	0
87	0	7.25	0	0
88	0	7.25	0	0
89	0	0	0.3	0
90	0	0	0.3	0
91	0	0	0.3	0
92	0	0	0	0
93	0	0	0	0
94	0	0	0.3	0
95	0	0	0.3	0
96	0	0	0.3	0
97	0	0	0	0
98	0	0	0	0
99	0	0	0.3	0
100	0	0	0.3	0
101	-1.013	-0.709	0.473	0
102	0	0	0.3	0
103	0	0	0.3	0
104	-1.013	-0.709	0.473	0
105	0	0	0	0
106	0	0	0	0
107	0	10.75	0	0
108	0	10.75	0	0
109	0	5	0	0
110	0	5	0	0
111	0	0	0	0
112	0	0	0	0
113	0	10.75	0	0
114	0	10.75	0	0
115	0	5	0	0
116	0	5	0	0
117	0	10	0	0
118	0	10	0	0
119	0	10	0	0
120	0	10	0	0
121	0	5	0	0
122	0	5	0	0
123	0	0	0	0
124	0	0	0	0
125	0	0	0	0
126	0	0	0	0
127	0	0	0	0
128	0	0	0	0
129	0	0	0	0
130	0	0	0	0
131	0	0	0	0
132	0	0	0	0
133	0	0	0	0
134	0	0	0	0
135	0	0	0	0
136	0	0	0	0
137	0	0	0	0
138	0	0	0	0
139	0	7.25	0	0
140	0	7.25	0	0
141	0	7.25	0	0
142	0	7.25	0	0
143	0	7.25	0	0
144	0	7.25	0	0
145	0	7.25	0	0
146	0	7.25	0	0
147	0	7.25	0	0
148	0	7.25	0	0
149	0	0	0.3	0
150	0	0	0.3	0
151	0	0	0.3	0
152	0	0	0	0
153	0	0	0	0
154	0	0	0	0
155	0	0	0	0
156	0	0	0	0
157	0	0	0	0
158	0	0	0	0
159	0	0	0	0
160	0	5	0	0
161	0	5	0	0
162	0	5	0	0
163	0	0	0.3	0
164	0	0	0.3	0
165	0	0	0.3	0
166	0	0	0	0
167	0	0	0	0
168	0	0	0.3	0
169	0	0	0.3	0
170	0	0	0.464	0
171	0	0	0.3	0
172	0	0	0.3	0
173	0	0	0.464	0
174	0	0	0	0
175	0	0	0	0
176	0	0	0	0
177	0	0	0	0
178	0	10	0	0
179	0	10	0	0
180	0	10	0	0
181	0	10.75	0	0
182	0	10.75	0	0
183	2.392	-0.674	0.55	0
184	-1.013	-0.709	0.473	0
185	-1.013	-0.709	0.473	0
186	0	10	0	0
187	0	10	0	0
188	0	0	0	0
189	0	0	0	0
190	0	1.1	0	0
191	0	1.1	0	0
192	0.845	-0.962	0.713	0
193	0	0	0.464	0
194	0	0	0.464	0
195	0	10.75	0	0
196	0	10.75	0	0
197	0	10	0	0
198	0	10	0	0
199	0	10	0	0
200	0	10	0	0
201	0	0	0	0
202	0	0	0	0
203	0	2.1	0	0
204	0	2.1	0	0
205	0	6.089	0	0
206	0	4.9	0	0
207	0	6.089	0	0
208	0	4.9	0	0

# 1  C10-C12-C14-C13
# 2  C10-C12-C14-C15
# 3  C11-C13-C14-C12
# 4  C11-C13-C14-C15
# 5  C12-C10-C9-C11
# 6  C12-C10-C9-C8
# 7  C12-C14-C15-N4
# 8  C12-C14-C15-O2
# 9  C13-C11-C9-C10
# 10  C13-C11-C9-C8
# 11  C13-C14-C15-N4
# 12  C13-C14-C15-O2
# 13  C14-C15-N4-C16
# 14  C14-C15-N4-H14
# 15  C16-C17-C18-H19
# 16  C16-C17-C18-H20
# 17  C16-C17-C18-N5
# 18  C17-C16-N4-C15
# 19  C17-C16-N4-H14
# 20  C17-C18-N5-C19
# 21  C17-C18-N5-C20
# 22  C19-C21-N6-C20
# 23  C19-C21-N6-C22
# 24  C2-C5-N2-C1
# 25  C2-C5-N2-C22
# 26  C2-C5-N2-C4
# 27  C21-C19-N5-C18
# 28  C21-C19-N5-C20
# 29  C22-C23-C24-C26
# 30  C22-C23-C24-H26
# 31  C22-C23-C25-C27
# 32  C22-C23-C25-H27
# 33  C23-C22-N6-C20
# 34  C23-C22-N6-C21
# 35  C23-C24-C26-C28
# 36  C23-C24-C26-H28
# 37  C23-C25-C27-C28
# 38  C23-C25-C27-H29
# 39  C24-C23-C25-C27
# 40  C24-C23-C25-H27
# 41  C24-C26-C28-C22
# 42  C24-C26-C28-C27
# 43  C24-C26-C28-C29
# 44  C25-C23-C24-C26
# 45  C25-C23-C24-H26
# 46  C25-C27-C28-C22
# 47  C25-C27-C28-C26
# 48  C25-C27-C28-C29
# 49  C26-C28-C29-H30
# 50  C26-C28-C29-H31
# 51  C26-C28-C29-H32
# 52  C27-C28-C29-H30
# 53  C27-C28-C29-H31
# 54  C27-C28-C29-H32
# 55  C28-C22-N2-C1
# 56  C28-C22-N2-C5
# 57  C3-C6-C7-H7
# 58  C3-C6-C7-H8
# 59  C3-C6-C7-N3
# 60  C5-C2-N1-C1
# 61  C5-C2-N1-C3
# 62  C6-C3-N1-C1
# 63  C6-C3-N1-C2
# 64  C6-C7-N3-C8
# 65  C6-C7-N3-H9
# 66  C9-C10-C12-C14
# 67  C9-C10-C12-H12
# 68  C9-C11-C13-C14
# 69  C9-C11-C13-H13
# 70  C9-C8-N3-C7
# 71  C9-C8-N3-H9
# 72  H1-C1-N1-C2
# 73  H1-C1-N1-C3
# 74  H1-C1-N2-C22
# 75  H1-C1-N2-C4
# 76  H1-C1-N2-C5
# 77  H10-C10-C12-C14
# 78  H10-C10-C12-H12
# 79  H10-C10-C9-C11
# 80  H10-C10-C9-C8
# 81  H11-C11-C13-C14
# 82  H11-C11-C13-H13
# 83  H11-C11-C9-C10
# 84  H11-C11-C9-C8
# 85  H12-C12-C14-C13
# 86  H12-C12-C14-C15
# 87  H13-C13-C14-C12
# 88  H13-C13-C14-C15
# 89  H15-C16-C17-C18
# 90  H15-C16-C17-H17
# 91  H15-C16-C17-H18
# 92  H15-C16-N4-C15
# 93  H15-C16-N4-H14
# 94  H16-C16-C17-C18
# 95  H16-C16-C17-H17
# 96  H16-C16-C17-H18
# 97  H16-C16-N4-C15
# 98  H16-C16-N4-H14
# 99  H17-C17-C18-H19
# 100  H17-C17-C18-H20
# 101  H17-C17-C18-N5
# 102  H18-C17-C18-H19
# 103  H18-C17-C18-H20
# 104  H18-C17-C18-N5
# 105  H19-C18-N5-C19
# 106  H19-C18-N5-C20
# 107  H2-C2-C5-H36
# 108  H2-C2-C5-N2
# 109  H2-C2-N1-C1
# 110  H2-C2-N1-C3
# 111  H20-C18-N5-C19
# 112  H20-C18-N5-C20
# 113  H21-C19-C21-H23
# 114  H21-C19-C21-N6
# 115  H21-C19-N5-C18
# 116  H21-C19-N5-C20
# 117  H22-C20-N5-C18
# 118  H22-C20-N5-C19
# 119  H22-C20-N6-C21
# 120  H22-C20-N6-C22
# 121  H23-C21-N6-C20
# 122  H23-C21-N6-C22
# 123  H24-C22-C23-C24
# 124  H24-C22-C23-C25
# 125  H24-C22-C28-C26
# 126  H24-C22-C28-C27
# 127  H24-C22-N2-C1
# 128  H24-C22-N2-C5
# 129  H24-C22-N6-C20
# 130  H24-C22-N6-C21
# 131  H25-C22-C23-C24
# 132  H25-C22-C23-C25
# 133  H25-C22-C28-C26
# 134  H25-C22-C28-C27
# 135  H25-C22-N2-C1
# 136  H25-C22-N2-C5
# 137  H25-C22-N6-C20
# 138  H25-C22-N6-C21
# 139  H26-C24-C26-C28
# 140  H26-C24-C26-H28
# 141  H27-C25-C27-C28
# 142  H27-C25-C27-H29
# 143  H28-C26-C28-C22
# 144  H28-C26-C28-C27
# 145  H28-C26-C28-C29
# 146  H29-C27-C28-C22
# 147  H29-C27-C28-C26
# 148  H29-C27-C28-C29
# 149  H3-C3-C6-C7
# 150  H3-C3-C6-H5
# 151  H3-C3-C6-H6
# 152  H3-C3-N1-C1
# 153  H3-C3-N1-C2
# 154  H33-C4-N2-C1
# 155  H33-C4-N2-C5
# 156  H34-C4-N2-C1
# 157  H34-C4-N2-C5
# 158  H35-C4-N2-C1
# 159  H35-C4-N2-C5
# 160  H36-C5-N2-C1
# 161  H36-C5-N2-C22
# 162  H36-C5-N2-C4
# 163  H4-C3-C6-C7
# 164  H4-C3-C6-H5
# 165  H4-C3-C6-H6
# 166  H4-C3-N1-C1
# 167  H4-C3-N1-C2
# 168  H5-C6-C7-H7
# 169  H5-C6-C7-H8
# 170  H5-C6-C7-N3
# 171  H6-C6-C7-H7
# 172  H6-C6-C7-H8
# 173  H6-C6-C7-N3
# 174  H7-C7-N3-C8
# 175  H7-C7-N3-H9
# 176  H8-C7-N3-C8
# 177  H8-C7-N3-H9
# 178  N1-C1-N2-C22
# 179  N1-C1-N2-C4
# 180  N1-C1-N2-C5
# 181  N1-C2-C5-H36
# 182  N1-C2-C5-N2
# 183  N1-C3-C6-C7
# 184  N1-C3-C6-H5
# 185  N1-C3-C6-H6
# 186  N2-C1-N1-C2
# 187  N2-C1-N1-C3
# 188  N2-C22-C28-C26
# 189  N2-C22-C28-C27
# 190  N3-C8-C9-C10
# 191  N3-C8-C9-C11
# 192  N4-C16-C17-C18
# 193  N4-C16-C17-H17
# 194  N4-C16-C17-H18
# 195  N5-C19-C21-H23
# 196  N5-C19-C21-N6
# 197  N5-C20-N6-C21
# 198  N5-C20-N6-C22
# 199  N6-C20-N5-C18
# 200  N6-C20-N5-C19
# 201  N6-C22-C23-C24
# 202  N6-C22-C23-C25
# 203  O1-C8-C9-C10
# 204  O1-C8-C9-C11
# 205  O1-C8-N3-C7
# 206  O1-C8-N3-H9
# 207  O2-C15-N4-C16
# 208  O2-C15-N4-H14

 Masses

 1 12.010700 # C1
 2 12.010700 # C10
 3 12.010700 # C11
 4 12.010700 # C12
 5 12.010700 # C13
 6 12.010700 # C14
 7 12.010700 # C15
 8 12.010700 # C16
 9 12.010700 # C17
 10 12.010700 # C18
 11 12.010700 # C19
 12 12.010700 # C2
 13 12.010700 # C20
 14 12.010700 # C21
 15 12.010700 # C22
 16 12.010700 # C23
 17 12.010700 # C24
 18 12.010700 # C25
 19 12.010700 # C26
 20 12.010700 # C27
 21 12.010700 # C28
 22 12.010700 # C29
 23 12.010700 # C3
 24 12.010700 # C4
 25 12.010700 # C5
 26 12.010700 # C6
 27 12.010700 # C7
 28 12.010700 # C8
 29 12.010700 # C9
 30 1.007940 # H1
 31 1.007940 # H10
 32 1.007940 # H11
 33 1.007940 # H12
 34 1.007940 # H13
 35 1.007940 # H14
 36 1.007940 # H15
 37 1.007940 # H16
 38 1.007940 # H17
 39 1.007940 # H18
 40 1.007940 # H19
 41 1.007940 # H2
 42 1.007940 # H20
 43 1.007940 # H21
 44 1.007940 # H22
 45 1.007940 # H23
 46 1.007940 # H24
 47 1.007940 # H25
 48 1.007940 # H26
 49 1.007940 # H27
 50 1.007940 # H28
 51 1.007940 # H29
 52 1.007940 # H3
 53 1.007940 # H30
 54 1.007940 # H31
 55 1.007940 # H32
 56 1.007940 # H33
 57 1.007940 # H34
 58 1.007940 # H35
 59 1.007940 # H36
 60 1.007940 # H4
 61 1.007940 # H5
 62 1.007940 # H6
 63 1.007940 # H7
 64 1.007940 # H8
 65 1.007940 # H9
 66 14.006700 # N1
 67 14.006700 # N2
 68 14.006700 # N3
 69 14.006700 # N4
 70 14.006700 # N5
 71 14.006700 # N6
 72 15.999400 # O1
 73 15.999400 # O2

 Atoms # full

1	1	22	-0.1875	-6.085	-0.16024	24.91547	#	C29
2	1	53	0.0989	-6.399	0.87778	24.76989	#	H30
3	1	54	0.0989	-6.607	-0.53568	25.801661	#	H31
4	1	55	0.0989	-5.006	-0.17961	25.10145	#	H32
5	1	30	0.2494	1	1	0	#	H1
6	1	1	0.0945	-0.082	1	0	#	C1
7	1	66	-0.1904	-0.862	1	1.13326	#	N1
8	1	67	-0.1663	-0.858	1.00143	-1.13009	#	N2
9	1	12	-0.0588	-2.179	1.0017	0.66938	#	C2
10	1	23	0.0034	-0.357	1.10641	2.49108	#	C3
11	1	15	0.0654	-0.401	0.93041	-2.49281	#	C22
12	1	25	-0.0608	-2.175	0.99917	-0.68158	#	C5
13	1	41	0.2231	-3.025	1.00345	1.33611	#	H2
14	1	26	-0.1939	-1.385	0.71881	3.54992	#	C6
15	1	52	0.132	-0.022	2.13601	2.6662	#	H3
16	1	60	0.132	0.526	0.46082	2.59293	#	H4
17	1	27	0.1485	-0.773	0.74122	4.94433	#	C7
18	1	61	0.1043	-2.235	1.41321	3.51708	#	H5
19	1	62	0.1043	-1.787	-0.28144	3.34177	#	H6
20	1	68	-0.9908	-1.777	0.45665	5.95117	#	N3
21	1	63	0.1079	-0.368	1.73372	5.1721	#	H7
22	1	64	0.1079	0.045	0.0154	5.01599	#	H8
23	1	28	0.5838	-1.487	-0.26644	7.08798	#	C8
24	1	65	0.4589	-2.666	0.93218	5.87907	#	H9
25	1	29	-0.1041	-2.618	-0.479	8.03438	#	C9
26	1	72	-0.3651	-0.369	-0.68397	7.36371	#	O1
27	1	2	-0.0768	-2.329	-0.60791	9.39974	#	C10
28	1	3	-0.1135	-3.946	-0.55355	7.59715	#	C11
29	1	31	0.1649	-1.297	-0.55147	9.7424	#	H10
30	1	4	-0.1105	-3.36	-0.80729	10.32532	#	C12
31	1	32	0.1368	-4.195	-0.49939	6.54095	#	H11
32	1	5	-0.0763	-4.979	-0.70193	8.5279	#	C13
33	1	33	0.1375	-3.107	-0.85985	11.38055	#	H12
34	1	6	-0.102	-4.688	-0.87875	9.88763	#	C14
35	1	34	0.1659	-6.014	-0.68024	8.18743	#	H13
36	1	7	0.5821	-5.826	-1.08122	10.82728	#	C15
37	1	69	-0.9874	-5.551	-1.74728	12.00374	#	N4
38	1	73	-0.3684	-6.941	-0.66231	10.53295	#	O2
39	1	8	0.1461	-6.59	-1.99239	12.98364	#	C16
40	1	35	0.4584	-4.658	-2.20633	12.12209	#	H14
41	1	9	-0.1916	-6.015	-2.11095	14.38886	#	C17
42	1	36	0.1062	-7.327	-1.18178	12.93744	#	H15
43	1	37	0.1062	-7.094	-2.92121	12.69248	#	H16
44	1	10	0.0066	-7.135	-2.24041	15.41954	#	C18
45	1	38	0.1046	-5.405	-1.22599	14.61016	#	H17
46	1	39	0.1046	-5.345	-2.97877	14.43666	#	H18
47	1	70	-0.2038	-6.661	-2.50394	16.76659	#	N5
48	1	40	0.1304	-7.732	-1.32072	15.42617	#	H19
49	1	42	0.1304	-7.804	-3.05526	15.11691	#	H20
50	1	11	-0.0645	-5.378	-2.39358	17.30311	#	C19
51	1	13	0.0941	-7.462	-2.88503	17.817591	#	C20
52	1	43	0.221	-4.532	-2.07173	16.715691	#	H21
53	1	14	-0.052	-5.409	-2.74629	18.60586	#	C21
54	1	44	0.2472	-8.527	-3.06667	17.73848	#	H22
55	1	71	-0.1617	-6.734	-3.00518	18.97423	#	N6
56	1	45	0.2319	-4.598	-2.83642	19.312309	#	H23
57	1	15	0.0654	-7.228	-3.48483	20.25256	#	C22
58	1	16	-0.1532	-6.902	-2.59404	21.43516	#	C23
59	1	46	0.1555	-8.319	-3.59679	20.21649	#	H24
60	1	47	0.1555	-6.807	-4.48321	20.42487	#	H25
61	1	17	-0.0992	-6.831	-3.16701	22.71546	#	C24
62	1	18	-0.1175	-6.741	-1.20612	21.316629	#	C25
63	1	48	0.1392	-6.966	-4.23815	22.843941	#	H26
64	1	19	-0.1142	-6.587	-2.37722	23.84214	#	C26
65	1	49	0.1192	-6.809	-0.73048	20.34008	#	H27
66	1	20	-0.1191	-6.491	-0.41631	22.44359	#	C27
67	1	50	0.156	-6.536	-2.84795	24.820761	#	H28
68	1	21	-0.028	-6.412	-0.99578	23.71393	#	C28
69	1	51	0.1491	-6.361	0.65638	22.316811	#	H29
70	1	46	0.1555	-0.087	-0.09044	-2.13733	#	H24
71	1	47	0.1555	0.449	1.60297	-2.6524	#	H25
72	1	59	0.2286	-3.005	0.99708	-1.37073	#	H36
73	1	30	0.2494	6.684	2.09065	-27.408279	#	H1
74	1	1	0.0945	5.602	2.09065	-27.408279	#	C1
75	1	66	-0.1904	4.822	2.09065	-26.275021	#	N1
76	1	67	-0.1663	4.826	2.09208	-28.53837	#	N2
77	1	12	-0.0588	3.505	2.09235	-26.738899	#	C2
78	1	23	0.0034	5.327	2.19706	-24.9172	#	C3
79	1	15	-0.071	5.283	2.02106	-29.901091	#	C22
80	1	25	-0.0608	3.509	2.08982	-28.089861	#	C5
81	1	41	0.2231	2.659	2.0941	-26.07217	#	H2
82	1	26	-0.1939	4.299	1.80946	-23.85836	#	C6
83	1	52	0.132	5.662	3.22666	-24.742081	#	H3
84	1	60	0.132	6.21	1.55147	-24.81535	#	H4
85	1	27	0.1485	4.911	1.83187	-22.463949	#	C7
86	1	61	0.1043	3.449	2.50386	-23.891199	#	H5
87	1	62	0.1043	3.897	0.80921	-24.066509	#	H6
88	1	68	-0.9908	3.907	1.5473	-21.457109	#	N3
89	1	63	0.1079	5.316	2.82437	-22.236179	#	H7
90	1	64	0.1079	5.729	1.10605	-22.39229	#	H8
91	1	28	0.5838	4.197	0.82421	-20.320299	#	C8
92	1	65	0.4589	3.018	2.02283	-21.529209	#	H9
93	1	29	-0.1041	3.066	0.61165	-19.373899	#	C9
94	1	72	-0.3651	5.315	0.40668	-20.044571	#	O1
95	1	2	-0.0768	3.355	0.48274	-18.008539	#	C10
96	1	3	-0.1135	1.738	0.5371	-19.811131	#	C11
97	1	31	0.1649	4.387	0.53918	-17.66588	#	H10
98	1	4	-0.1105	2.324	0.28336	-17.08296	#	C12
99	1	32	0.1368	1.489	0.59126	-20.867331	#	H11
100	1	5	-0.0763	0.705	0.38872	-18.880381	#	C13
101	1	33	0.1375	2.577	0.2308	-16.027731	#	H12
102	1	6	-0.102	0.996	0.2119	-17.520651	#	C14
103	1	34	0.1659	-0.33	0.41041	-19.22085	#	H13
104	1	7	0.5821	-0.142	0.00943	-16.580999	#	C15
105	1	69	-0.9874	0.133	-0.65663	-15.40454	#	N4
106	1	73	-0.3684	-1.257	0.42834	-16.87533	#	O2
107	1	8	0.1461	-0.906	-0.90174	-14.42464	#	C16
108	1	35	0.4584	1.026	-1.11568	-15.28619	#	H14
109	1	9	-0.1916	-0.331	-1.0203	-13.01942	#	C17
110	1	36	0.1062	-1.643	-0.09113	-14.47084	#	H15
111	1	37	0.1062	-1.41	-1.83056	-14.7158	#	H16
112	1	10	0.0066	-1.451	-1.14976	-11.98874	#	C18
113	1	38	0.1046	0.279	-0.13534	-12.79812	#	H17
114	1	39	0.1046	0.339	-1.88812	-12.97162	#	H18
115	1	70	-0.2038	-0.977	-1.41329	-10.64169	#	N5
116	1	40	0.1304	-2.048	-0.23007	-11.98211	#	H19
117	1	42	0.1304	-2.12	-1.96461	-12.29137	#	H20
118	1	11	-0.0645	0.306	-1.30293	-10.10517	#	C19
119	1	13	0.0941	-1.778	-1.79438	-9.59069	#	C20
120	1	43	0.221	1.152	-0.98108	-10.69259	#	H21
121	1	14	-0.052	0.275	-1.65564	-8.80242	#	C21
122	1	44	0.2472	-2.843	-1.97602	-9.6698	#	H22
123	1	71	-0.1617	-1.05	-1.91453	-8.43405	#	N6
124	1	45	0.2319	1.086	-1.74577	-8.09597	#	H23
125	1	15	0.0654	-1.544	-2.39418	-7.15572	#	C22
126	1	16	-0.1532	-1.218	-1.50339	-5.97312	#	C23
127	1	46	0.1555	-2.635	-2.50614	-7.19179	#	H24
128	1	47	0.1555	-1.123	-3.39256	-6.98341	#	H25
129	1	17	-0.0992	-1.147	-2.07636	-4.69282	#	C24
130	1	18	-0.1175	-1.057	-0.11547	-6.09165	#	C25
131	1	48	0.1392	-1.282	-3.1475	-4.56434	#	H26
132	1	19	-0.1142	-0.903	-1.28657	-3.56614	#	C26
133	1	49	0.1192	-1.125	0.36017	-7.0682	#	H27
134	1	20	-0.1191	-0.807	0.67434	-4.96469	#	C27
135	1	50	0.156	-0.852	-1.7573	-2.58752	#	H28
136	1	21	-0.028	-0.728	0.09487	-3.69435	#	C28
137	1	51	0.1491	-0.677	1.74703	-5.09147	#	H29
138	1	46	0.1555	5.597	1.00021	-29.54561	#	H24
139	1	47	0.1555	6.133	2.69362	-30.06068	#	H25
140	1	59	0.2286	2.679	2.08773	-28.779011	#	H36
141	1	30	0.2494	12.368	3.1813	-54.816559	#	H1
142	1	1	0.0945	11.286	3.1813	-54.816559	#	C1
143	1	66	-0.1904	10.506	3.1813	-53.6833	#	N1
144	1	67	-0.1663	10.51	3.18273	-55.946651	#	N2
145	1	12	-0.0588	9.189	3.183	-54.147179	#	C2
146	1	23	0.0034	11.011	3.28771	-52.325481	#	C3
147	1	15	0.0654	10.967	3.11171	-57.309368	#	C22
148	1	25	-0.0608	9.193	3.18047	-55.498138	#	C5
149	1	41	0.2231	8.343	3.18475	-53.48045	#	H2
150	1	26	-0.1939	9.983	2.90011	-51.26664	#	C6
151	1	52	0.132	11.346	4.31731	-52.15036	#	H3
152	1	60	0.132	11.894	2.64212	-52.223629	#	H4
153	1	27	0.1485	10.595	2.92252	-49.872231	#	C7
154	1	61	0.1043	9.133	3.59451	-51.29948	#	H5
155	1	62	0.1043	9.581	1.89986	-51.474789	#	H6
156	1	68	-0.9908	9.591	2.63795	-48.865391	#	N3
157	1	63	0.1079	11	3.91502	-49.644459	#	H7
158	1	64	0.1079	11.413	2.1967	-49.800571	#	H8
159	1	28	0.5838	9.881	1.91486	-47.72858	#	C8
160	1	65	0.4589	8.702	3.11348	-48.937489	#	H9
161	1	29	-0.1041	8.75	1.7023	-46.782181	#	C9
162	1	72	-0.3651	10.999	1.49733	-47.45285	#	O1
163	1	2	-0.0768	9.039	1.57339	-45.416821	#	C10
164	1	3	-0.1135	7.422	1.62775	-47.21941	#	C11
165	1	31	0.1649	10.071	1.62983	-45.074162	#	H10
166	1	4	-0.1105	8.008	1.37401	-44.491241	#	C12
167	1	32	0.1368	7.173	1.68191	-48.275612	#	H11
168	1	5	-0.0763	6.389	1.47937	-46.288658	#	C13
169	1	33	0.1375	8.261	1.32145	-43.436008	#	H12
170	1	6	-0.102	6.68	1.30255	-44.928928	#	C14
171	1	34	0.1659	5.354	1.50106	-46.629131	#	H13
172	1	7	0.5821	5.542	1.10008	-43.989281	#	C15
173	1	69	-0.9874	5.817	0.43402	-42.81282	#	N4
174	1	73	-0.3684	4.427	1.51899	-44.283611	#	O2
175	1	8	0.1461	4.778	0.18891	-41.83292	#	C16
176	1	35	0.4584	6.71	-0.02503	-42.694469	#	H14
177	1	9	-0.1916	5.353	0.07035	-40.4277	#	C17
178	1	36	0.1062	4.041	0.99952	-41.87912	#	H15
179	1	37	0.1062	4.274	-0.73991	-42.124081	#	H16
180	1	10	0.0066	4.233	-0.05911	-39.397018	#	C18
181	1	38	0.1046	5.963	0.95531	-40.206402	#	H17
182	1	39	0.1046	6.023	-0.79747	-40.379902	#	H18
183	1	70	-0.2038	4.707	-0.32264	-38.049969	#	N5
184	1	40	0.1304	3.636	0.86058	-39.390388	#	H19
185	1	42	0.1304	3.564	-0.87396	-39.69965	#	H20
186	1	11	-0.0645	5.99	-0.21228	-37.513451	#	C19
187	1	13	0.0941	3.906	-0.70373	-36.99897	#	C20
188	1	43	0.221	6.836	0.10957	-38.100868	#	H21
189	1	14	-0.052	5.959	-0.56499	-36.210701	#	C21
190	1	44	0.2472	2.841	-0.88537	-37.078079	#	H22
191	1	71	-0.1617	4.634	-0.82388	-35.842331	#	N6
192	1	45	0.2319	6.77	-0.65512	-35.50425	#	H23
193	1	15	0.0654	4.14	-1.30353	-34.563999	#	C22
194	1	16	-0.1532	4.466	-0.41274	-33.381401	#	C23
195	1	46	0.1555	3.049	-1.41549	-34.600071	#	H24
196	1	47	0.1555	4.561	-2.30191	-34.391689	#	H25
197	1	17	-0.0992	4.537	-0.98571	-32.101101	#	C24
198	1	18	-0.1175	4.627	0.97518	-33.499931	#	C25
199	1	48	0.1392	4.402	-2.05685	-31.97262	#	H26
200	1	19	-0.1142	4.781	-0.19592	-30.974421	#	C26
201	1	49	0.1192	4.559	1.45082	-34.476479	#	H27
202	1	20	-0.1191	4.877	1.76499	-32.372971	#	C27
203	1	50	0.156	4.832	-0.66665	-29.9958	#	H28
204	1	21	-0.028	4.956	1.18552	-31.102631	#	C28
205	1	51	0.1491	5.007	2.83768	-32.499748	#	H29
206	1	46	0.1555	11.281	2.09086	-56.953892	#	H24
207	1	47	0.1555	11.817	3.78427	-57.46896	#	H25
208	1	59	0.2286	8.363	3.17838	-56.18729	#	H36
209	1	30	0.2494	18.052	4.27195	-82.224838	#	H1
210	1	1	0.0945	16.969999	4.27195	-82.224838	#	C1
211	1	66	-0.1904	16.190001	4.27195	-81.091583	#	N1
212	1	67	-0.1663	16.194	4.27338	-83.354927	#	N2
213	1	12	-0.0588	14.873	4.27365	-81.555458	#	C2
214	1	23	0.0034	16.695	4.37836	-79.733757	#	C3
215	1	15	-0.071	16.650999	4.20236	-84.717651	#	C22
216	1	25	-0.0608	14.877	4.27112	-82.906418	#	C5
217	1	41	0.2231	14.027	4.2754	-80.888733	#	H2
218	1	26	-0.1939	15.667	3.99076	-78.674919	#	C6
219	1	52	0.132	17.030001	5.40796	-79.55864	#	H3
220	1	60	0.132	17.577999	3.73277	-79.631912	#	H4
221	1	27	0.1485	16.278999	4.01317	-77.28051	#	C7
222	1	61	0.1043	14.817	4.68516	-78.707764	#	H5
223	1	62	0.1043	15.265	2.99051	-78.883072	#	H6
224	1	68	-0.9908	15.275	3.7286	-76.273666	#	N3
225	1	63	0.1079	16.684	5.00567	-77.052742	#	H7
226	1	64	0.1079	17.097	3.28735	-77.208847	#	H8
227	1	28	0.5838	15.565	3.00551	-75.136864	#	C8
228	1	65	0.4589	14.386	4.20413	-76.345772	#	H9
229	1	29	-0.1041	14.434	2.79295	-74.19046	#	C9
230	1	72	-0.3651	16.683001	2.58798	-74.86113	#	O1
231	1	2	-0.0768	14.723	2.66404	-72.825104	#	C10
232	1	3	-0.1135	13.106	2.7184	-74.627693	#	C11
233	1	31	0.1649	15.755	2.72048	-72.482437	#	H10
234	1	4	-0.1105	13.692	2.46466	-71.899521	#	C12
235	1	32	0.1368	12.857	2.77256	-75.683891	#	H11
236	1	5	-0.0763	12.073	2.57002	-73.696938	#	C13
237	1	33	0.1375	13.945	2.4121	-70.844292	#	H12
238	1	6	-0.102	12.364	2.3932	-72.337212	#	C14
239	1	34	0.1659	11.038	2.59171	-74.037407	#	H13
240	1	7	0.5821	11.226	2.19073	-71.39756	#	C15
241	1	69	-0.9874	11.501	1.52467	-70.2211	#	N4
242	1	73	-0.3684	10.111	2.60964	-71.691887	#	O2
243	1	8	0.1461	10.462	1.27956	-69.241203	#	C16
244	1	35	0.4584	12.394	1.06562	-70.102753	#	H14
245	1	9	-0.1916	11.037	1.161	-67.835983	#	C17
246	1	36	0.1062	9.725	2.09017	-69.287399	#	H15
247	1	37	0.1062	9.958	0.35074	-69.532356	#	H16
248	1	10	0.0066	9.917	1.03154	-66.805298	#	C18
249	1	38	0.1046	11.647	2.04596	-67.614677	#	H17
250	1	39	0.1046	11.707	0.29318	-67.788177	#	H18
251	1	70	-0.2038	10.391	0.76801	-65.458252	#	N5
252	1	40	0.1304	9.32	1.95123	-66.798668	#	H19
253	1	42	0.1304	9.248	0.21669	-67.107933	#	H20
254	1	11	-0.0645	11.674	0.87837	-64.92173	#	C19
255	1	13	0.0941	9.59	0.38692	-64.407249	#	C20
256	1	43	0.221	12.52	1.20022	-65.509148	#	H21
257	1	14	-0.052	11.643	0.52566	-63.61898	#	C21
258	1	44	0.2472	8.525	0.20528	-64.486359	#	H22
259	1	71	-0.1617	10.318	0.26677	-63.25061	#	N6
260	1	45	0.2319	12.454	0.43553	-62.912529	#	H23
261	1	15	0.0654	9.824	-0.21288	-61.972279	#	C22
262	1	16	-0.1532	10.15	0.67791	-60.78968	#	C23
263	1	46	0.1555	8.733	-0.32484	-62.00835	#	H24
264	1	47	0.1555	10.245	-1.21126	-61.799969	#	H25
265	1	17	-0.0992	10.221	0.10494	-59.50938	#	C24
266	1	18	-0.1175	10.311	2.06583	-60.908211	#	C25
267	1	48	0.1392	10.086	-0.9662	-59.380901	#	H26
268	1	19	-0.1142	10.465	0.89473	-58.382702	#	C26
269	1	49	0.1192	10.243	2.54147	-61.884762	#	H27
270	1	20	-0.1191	10.561	2.85564	-59.78125	#	C27
271	1	50	0.156	10.516	0.424	-57.404079	#	H28
272	1	21	-0.028	10.64	2.27617	-58.51091	#	C28
273	1	51	0.1491	10.691	3.92833	-59.908031	#	H29
274	1	46	0.1555	16.965	3.18151	-84.362167	#	H24
275	1	47	0.1555	17.500999	4.87492	-84.877243	#	H25
276	1	59	0.2286	14.047	4.26903	-83.595573	#	H36
277	1	30	0.2494	23.736	5.3626	-109.633118	#	H1
278	1	1	0.0945	22.653999	5.3626	-109.633118	#	C1
279	1	66	-0.1904	21.874001	5.3626	-108.499863	#	N1
280	1	67	-0.1663	21.878	5.36403	-110.763206	#	N2
281	1	12	-0.0588	20.556999	5.3643	-108.963737	#	C2
282	1	23	0.0034	22.379	5.46901	-107.142036	#	C3
283	1	15	0.0654	22.334999	5.29301	-112.125931	#	C22
284	1	25	-0.0608	20.561001	5.36177	-110.314697	#	C5
285	1	41	0.2231	19.711	5.36605	-108.297012	#	H2
286	1	26	-0.1939	21.351	5.08141	-106.083199	#	C6
287	1	52	0.132	22.714001	6.49861	-106.966919	#	H3
288	1	60	0.132	23.261999	4.82342	-107.040192	#	H4
289	1	27	0.1485	21.962999	5.10382	-104.688789	#	C7
290	1	61	0.1043	20.500999	5.77581	-106.116043	#	H5
291	1	62	0.1043	20.948999	4.08116	-106.291351	#	H6
292	1	68	-0.9908	20.959	4.81925	-103.681953	#	N3
293	1	63	0.1079	22.368	6.09632	-104.461021	#	H7
294	1	64	0.1079	22.781	4.378	-104.617126	#	H8
295	1	28	0.5838	21.249001	4.09616	-102.545143	#	C8
296	1	65	0.4589	20.07	5.29478	-103.754051	#	H9